title="Density"
variables = "x","y","num"
zone i=100,j=100,f=point
1 1 9e+14
2 1 9e+14
3 1 8e+14
4 1 9e+14
5 1 8e+14
6 1 5e+14
7 1 1.2e+15
8 1 6e+14
9 1 1e+15
10 1 8e+14
11 1 9e+14
12 1 1e+15
13 1 8e+14
14 1 9e+14
15 1 1e+15
16 1 6e+14
17 1 5e+14
18 1 1e+15
19 1 7e+14
20 1 1e+15
21 1 9e+14
22 1 8e+14
23 1 1e+15
24 1 8e+14
25 1 9e+14
26 1 1e+15
27 1 6e+14
28 1 1e+15
29 1 4e+14
30 1 1e+15
31 1 9e+14
32 1 9e+14
33 1 1e+15
34 1 9e+14
35 1 9e+14
36 1 1.1e+15
37 1 9e+14
38 1 9e+14
39 1 1.1e+15
40 1 9e+14
41 1 9e+14
42 1 7e+14
43 1 8e+14
44 1 7e+14
45 1 1e+15
46 1 1e+15
47 1 9e+14
48 1 1e+15
49 1 1e+15
50 1 1e+15
51 1 1e+15
52 1 1e+15
53 1 1e+15
54 1 1e+15
55 1 1e+15
56 1 1.1e+15
57 1 9e+14
58 1 1.3e+15
59 1 1.1e+15
60 1 1e+15
61 1 1.3e+15
62 1 1.2e+15
63 1 1.1e+15
64 1 1.3e+15
65 1 1.4e+15
66 1 1.3e+15
67 1 7e+14
68 1 1.5e+15
69 1 1e+15
70 1 1.2e+15
71 1 1.1e+15
72 1 1.4e+15
73 1 1.1e+15
74 1 1.2e+15
75 1 1.3e+15
76 1 1.4e+15
77 1 1.8e+15
78 1 1.2e+15
79 1 1.2e+15
80 1 1.1e+15
81 1 9e+14
82 1 1.3e+15
83 1 1.1e+15
84 1 1.1e+15
85 1 1.5e+15
86 1 1.5e+15
87 1 1.3e+15
88 1 1.2e+15
89 1 1.6e+15
90 1 1.2e+15
91 1 1.4e+15
92 1 1.2e+15
93 1 1.2e+15
94 1 1.5e+15
95 1 1.7e+15
96 1 1e+15
97 1 9e+14
98 1 1.8e+15
99 1 1.2e+15
100 1 1.4e+15
1 2 9e+14
2 2 6e+14
3 2 7e+14
4 2 5e+14
5 2 8e+14
6 2 8e+14
7 2 7e+14
8 2 5e+14
9 2 9e+14
10 2 1e+15
11 2 5e+14
12 2 7e+14
13 2 9e+14
14 2 8e+14
15 2 4e+14
16 2 8e+14
17 2 1e+15
18 2 5e+14
19 2 7e+14
20 2 1e+15
21 2 5e+14
22 2 1e+15
23 2 4e+14
24 2 1e+15
25 2 7e+14
26 2 7e+14
27 2 7e+14
28 2 8e+14
29 2 8e+14
30 2 9e+14
31 2 8e+14
32 2 6e+14
33 2 9e+14
34 2 8e+14
35 2 6e+14
36 2 8e+14
37 2 7e+14
38 2 3e+14
39 2 1.1e+15
40 2 1e+15
41 2 5e+14
42 2 9e+14
43 2 7e+14
44 2 1.1e+15
45 2 1e+15
46 2 8e+14
47 2 1e+15
48 2 8e+14
49 2 9e+14
50 2 8e+14
51 2 1.2e+15
52 2 9e+14
53 2 9e+14
54 2 8e+14
55 2 1.3e+15
56 2 9e+14
57 2 9e+14
58 2 1e+15
59 2 8e+14
60 2 1.3e+15
61 2 8e+14
62 2 1.1e+15
63 2 1.4e+15
64 2 1.1e+15
65 2 1.2e+15
66 2 1.3e+15
67 2 1.4e+15
68 2 1.4e+15
69 2 1.4e+15
70 2 1.4e+15
71 2 1.5e+15
72 2 1.1e+15
73 2 9e+14
74 2 1.4e+15
75 2 1.2e+15
76 2 1.4e+15
77 2 1e+15
78 2 1.6e+15
79 2 1.3e+15
80 2 1.5e+15
81 2 1.4e+15
82 2 1.6e+15
83 2 1.1e+15
84 2 1.7e+15
85 2 1.3e+15
86 2 1.5e+15
87 2 1e+15
88 2 1.5e+15
89 2 1.2e+15
90 2 1.3e+15
91 2 1.6e+15
92 2 1.3e+15
93 2 1.4e+15
94 2 1.4e+15
95 2 1.2e+15
96 2 1.8e+15
97 2 8e+14
98 2 1.6e+15
99 2 1.2e+15
100 2 9e+14
1 3 1.2e+15
2 3 8e+14
3 3 1.3e+15
4 3 4e+14
5 3 6e+14
6 3 1.1e+15
7 3 7e+14
8 3 1.1e+15
9 3 8e+14
10 3 9e+14
11 3 9e+14
12 3 4e+14
13 3 6e+14
14 3 9e+14
15 3 9e+14
16 3 6e+14
17 3 8e+14
18 3 8e+14
19 3 1.2e+15
20 3 9e+14
21 3 5e+14
22 3 4e+14
23 3 1.2e+15
24 3 7e+14
25 3 1e+15
26 3 8e+14
27 3 1e+15
28 3 8e+14
29 3 5e+14
30 3 7e+14
31 3 1.1e+15
32 3 7e+14
33 3 7e+14
34 3 1e+15
35 3 9e+14
36 3 6e+14
37 3 1e+15
38 3 8e+14
39 3 9e+14
40 3 1e+15
41 3 1e+15
42 3 8e+14
43 3 9e+14
44 3 4e+14
45 3 9e+14
46 3 1e+15
47 3 9e+14
48 3 1e+15
49 3 8e+14
50 3 1e+15
51 3 9e+14
52 3 8e+14
53 3 1.3e+15
54 3 1e+15
55 3 1.2e+15
56 3 8e+14
57 3 1.1e+15
58 3 1e+15
59 3 1.1e+15
60 3 1.4e+15
61 3 8e+14
62 3 1e+15
63 3 9e+14
64 3 1.1e+15
65 3 9e+14
66 3 1.1e+15
67 3 1.5e+15
68 3 1.3e+15
69 3 1e+15
70 3 1.2e+15
71 3 1.2e+15
72 3 1.2e+15
73 3 1.9e+15
74 3 1.5e+15
75 3 1.3e+15
76 3 9e+14
77 3 1.3e+15
78 3 1.1e+15
79 3 1.6e+15
80 3 1.4e+15
81 3 1.5e+15
82 3 1.2e+15
83 3 1.5e+15
84 3 1e+15
85 3 1.1e+15
86 3 1.1e+15
87 3 1.2e+15
88 3 1.7e+15
89 3 1e+15
90 3 1.8e+15
91 3 1.3e+15
92 3 7e+14
93 3 1.2e+15
94 3 1.5e+15
95 3 1.6e+15
96 3 1.1e+15
97 3 1.6e+15
98 3 1.6e+15
99 3 1.3e+15
100 3 1.3e+15
1 4 1e+15
2 4 7e+14
3 4 7e+14
4 4 8e+14
5 4 5e+14
6 4 5e+14
7 4 8e+14
8 4 7e+14
9 4 9e+14
10 4 5e+14
11 4 1.3e+15
12 4 6e+14
13 4 1.2e+15
14 4 7e+14
15 4 6e+14
16 4 1.1e+15
17 4 1e+15
18 4 7e+14
19 4 7e+14
20 4 1.1e+15
21 4 6e+14
22 4 1e+15
23 4 5e+14
24 4 1e+15
25 4 1.1e+15
26 4 5e+14
27 4 1e+15
28 4 5e+14
29 4 9e+14
30 4 3e+14
31 4 5e+14
32 4 9e+14
33 4 9e+14
34 4 8e+14
35 4 1e+15
36 4 6e+14
37 4 7e+14
38 4 5e+14
39 4 1e+15
40 4 9e+14
41 4 9e+14
42 4 7e+14
43 4 1e+15
44 4 1.1e+15
45 4 7e+14
46 4 7e+14
47 4 9e+14
48 4 1e+15
49 4 1e+15
50 4 9e+14
51 4 8e+14
52 4 1e+15
53 4 6e+14
54 4 1.2e+15
55 4 1e+15
56 4 8e+14
57 4 1e+15
58 4 1.3e+15
59 4 8e+14
60 4 1.1e+15
61 4 1.1e+15
62 4 1.4e+15
63 4 1.4e+15
64 4 1e+15
65 4 1.2e+15
66 4 1e+15
67 4 8e+14
68 4 7e+14
69 4 1.3e+15
70 4 1.4e+15
71 4 8e+14
72 4 1.3e+15
73 4 1.4e+15
74 4 9e+14
75 4 1.1e+15
76 4 1.4e+15
77 4 1.1e+15
78 4 1.4e+15
79 4 1.1e+15
80 4 1.3e+15
81 4 8e+14
82 4 1.2e+15
83 4 1.1e+15
84 4 1.8e+15
85 4 1.3e+15
86 4 1.2e+15
87 4 1.6e+15
88 4 1.3e+15
89 4 1.2e+15
90 4 1.4e+15
91 4 1.6e+15
92 4 1.3e+15
93 4 1.6e+15
94 4 9e+14
95 4 1.4e+15
96 4 1.3e+15
97 4 8e+14
98 4 1e+15
99 4 1e+15
100 4 1.5e+15
1 5 3e+14
2 5 9e+14
3 5 1.1e+15
4 5 3e+14
5 5 9e+14
6 5 5e+14
7 5 1e+15
8 5 6e+14
9 5 6e+14
10 5 7e+14
11 5 9e+14
12 5 4e+14
13 5 3e+14
14 5 5e+14
15 5 7e+14
16 5 5e+14
17 5 8e+14
18 5 8e+14
19 5 2e+14
20 5 1e+15
21 5 5e+14
22 5 6e+14
23 5 5e+14
24 5 8e+14
25 5 4e+14
26 5 8e+14
27 5 3e+14
28 5 1.5e+15
29 5 3e+14
30 5 1.1e+15
31 5 8e+14
32 5 9e+14
33 5 8e+14
34 5 8e+14
35 5 7e+14
36 5 1e+15
37 5 1.1e+15
38 5 1.2e+15
39 5 4e+14
40 5 8e+14
41 5 8e+14
42 5 9e+14
43 5 4e+14
44 5 1e+15
45 5 1.4e+15
46 5 1.2e+15
47 5 9e+14
48 5 1.1e+15
49 5 7e+14
50 5 1.1e+15
51 5 1.2e+15
52 5 9e+14
53 5 1e+15
54 5 1e+15
55 5 1e+15
56 5 1.1e+15
57 5 7e+14
58 5 8e+14
59 5 1.1e+15
60 5 1.6e+15
61 5 9e+14
62 5 1.2e+15
63 5 8e+14
64 5 8e+14
65 5 1.1e+15
66 5 1.8e+15
67 5 5e+14
68 5 1.1e+15
69 5 1.2e+15
70 5 1.5e+15
71 5 1.5e+15
72 5 8e+14
73 5 9e+14
74 5 1.7e+15
75 5 1.2e+15
76 5 1.8e+15
77 5 6e+14
78 5 2.1e+15
79 5 1.1e+15
80 5 1.2e+15
81 5 1.6e+15
82 5 1.3e+15
83 5 1.1e+15
84 5 1.5e+15
85 5 1.2e+15
86 5 1.5e+15
87 5 1.4e+15
88 5 1.5e+15
89 5 1.5e+15
90 5 1e+15
91 5 1.1e+15
92 5 1.3e+15
93 5 6e+14
94 5 1.6e+15
95 5 1.3e+15
96 5 1.5e+15
97 5 1.1e+15
98 5 1.4e+15
99 5 1.2e+15
100 5 1.6e+15
1 6 1e+15
2 6 5e+14
3 6 8e+14
4 6 7e+14
5 6 1e+15
6 6 9e+14
7 6 8e+14
8 6 7e+14
9 6 9e+14
10 6 6e+14
11 6 6e+14
12 6 1.2e+15
13 6 1.1e+15
14 6 1.2e+15
15 6 6e+14
16 6 9e+14
17 6 7e+14
18 6 6e+14
19 6 6e+14
20 6 9e+14
21 6 7e+14
22 6 1e+15
23 6 8e+14
24 6 6e+14
25 6 7e+14
26 6 9e+14
27 6 5e+14
28 6 1e+15
29 6 7e+14
30 6 8e+14
31 6 1.2e+15
32 6 3e+14
33 6 7e+14
34 6 8e+14
35 6 8e+14
36 6 6e+14
37 6 1.4e+15
38 6 7e+14
39 6 8e+14
40 6 7e+14
41 6 8e+14
42 6 1e+15
43 6 1.2e+15
44 6 6e+14
45 6 4e+14
46 6 4e+14
47 6 5e+14
48 6 9e+14
49 6 1.1e+15
50 6 9e+14
51 6 1e+15
52 6 7e+14
53 6 1e+15
54 6 6e+14
55 6 1.1e+15
56 6 1e+15
57 6 1e+15
58 6 1.4e+15
59 6 1.1e+15
60 6 9e+14
61 6 1e+15
62 6 1.1e+15
63 6 1.4e+15
64 6 1.4e+15
65 6 1.7e+15
66 6 1.5e+15
67 6 8e+14
68 6 1.3e+15
69 6 1e+15
70 6 1e+15
71 6 1.3e+15
72 6 1.1e+15
73 6 1.6e+15
74 6 1.2e+15
75 6 1.2e+15
76 6 1.3e+15
77 6 1.4e+15
78 6 1.2e+15
79 6 1.4e+15
80 6 1.2e+15
81 6 1.2e+15
82 6 1.1e+15
83 6 1.8e+15
84 6 1.4e+15
85 6 9e+14
86 6 1.2e+15
87 6 1.1e+15
88 6 1.4e+15
89 6 1.3e+15
90 6 1.2e+15
91 6 1e+15
92 6 1.3e+15
93 6 1.8e+15
94 6 1.2e+15
95 6 1.3e+15
96 6 1.3e+15
97 6 1.3e+15
98 6 1.3e+15
99 6 1.6e+15
100 6 8e+14
1 7 1.2e+15
2 7 4e+14
3 7 1e+15
4 7 4e+14
5 7 8e+14
6 7 6e+14
7 7 1e+15
8 7 8e+14
9 7 9e+14
10 7 7e+14
11 7 9e+14
12 7 7e+14
13 7 5e+14
14 7 8e+14
15 7 8e+14
16 7 8e+14
17 7 8e+14
18 7 9e+14
19 7 8e+14
20 7 7e+14
21 7 9e+14
22 7 4e+14
23 7 1e+15
24 7 8e+14
25 7 9e+14
26 7 7e+14
27 7 5e+14
28 7 1.2e+15
29 7 4e+14
30 7 1.2e+15
31 7 6e+14
32 7 1.1e+15
33 7 1.3e+15
34 7 5e+14
35 7 9e+14
36 7 9e+14
37 7 4e+14
38 7 1.1e+15
39 7 1.2e+15
40 7 9e+14
41 7 3e+14
42 7 5e+14
43 7 9e+14
44 7 9e+14
45 7 1.2e+15
46 7 1e+15
47 7 1.2e+15
48 7 1.1e+15
49 7 7e+14
50 7 1e+15
51 7 8e+14
52 7 1.4e+15
53 7 1.2e+15
54 7 1.1e+15
55 7 7e+14
56 7 1.5e+15
57 7 8e+14
58 7 9e+14
59 7 9e+14
60 7 1.4e+15
61 7 1.3e+15
62 7 1.3e+15
63 7 1e+15
64 7 1.2e+15
65 7 4e+14
66 7 1.6e+15
67 7 1e+15
68 7 1.1e+15
69 7 1.1e+15
70 7 1e+15
71 7 1.5e+15
72 7 1.1e+15
73 7 9e+14
74 7 1.5e+15
75 7 1.5e+15
76 7 8e+14
77 7 1.3e+15
78 7 1.3e+15
79 7 1.2e+15
80 7 1.5e+15
81 7 1.3e+15
82 7 1.5e+15
83 7 1.1e+15
84 7 1.5e+15
85 7 1.4e+15
86 7 1.3e+15
87 7 1.7e+15
88 7 1.2e+15
89 7 1.3e+15
90 7 1.8e+15
91 7 1.2e+15
92 7 1.6e+15
93 7 1.1e+15
94 7 1.9e+15
95 7 1.7e+15
96 7 9e+14
97 7 1.8e+15
98 7 1.4e+15
99 7 1.5e+15
100 7 1.4e+15
1 8 7e+14
2 8 9e+14
3 8 7e+14
4 8 5e+14
5 8 8e+14
6 8 9e+14
7 8 9e+14
8 8 6e+14
9 8 9e+14
10 8 7e+14
11 8 8e+14
12 8 7e+14
13 8 6e+14
14 8 7e+14
15 8 9e+14
16 8 7e+14
17 8 9e+14
18 8 8e+14
19 8 7e+14
20 8 8e+14
21 8 7e+14
22 8 1.2e+15
23 8 9e+14
24 8 6e+14
25 8 8e+14
26 8 1e+15
27 8 8e+14
28 8 6e+14
29 8 6e+14
30 8 5e+14
31 8 7e+14
32 8 7e+14
33 8 4e+14
34 8 7e+14
35 8 1.3e+15
36 8 5e+14
37 8 9e+14
38 8 7e+14
39 8 6e+14
40 8 1.2e+15
41 8 1.1e+15
42 8 4e+14
43 8 7e+14
44 8 1.4e+15
45 8 7e+14
46 8 6e+14
47 8 1e+15
48 8 8e+14
49 8 1.3e+15
50 8 8e+14
51 8 1.3e+15
52 8 4e+14
53 8 1e+15
54 8 5e+14
55 8 1.1e+15
56 8 8e+14
57 8 1.2e+15
58 8 1.3e+15
59 8 1.1e+15
60 8 9e+14
61 8 9e+14
62 8 1.6e+15
63 8 1e+15
64 8 1.2e+15
65 8 1.4e+15
66 8 1e+15
67 8 1.2e+15
68 8 1.7e+15
69 8 1.5e+15
70 8 1e+15
71 8 1.4e+15
72 8 1.5e+15
73 8 1.4e+15
74 8 1.3e+15
75 8 1.3e+15
76 8 8e+14
77 8 1.5e+15
78 8 1.5e+15
79 8 1.6e+15
80 8 1.5e+15
81 8 1.5e+15
82 8 1.4e+15
83 8 1.4e+15
84 8 1.5e+15
85 8 1.4e+15
86 8 1.7e+15
87 8 1.7e+15
88 8 1.3e+15
89 8 1.5e+15
90 8 1.5e+15
91 8 7e+14
92 8 1.6e+15
93 8 1.1e+15
94 8 1.1e+15
95 8 1.3e+15
96 8 1.4e+15
97 8 1.1e+15
98 8 1.3e+15
99 8 9e+14
100 8 1.5e+15
1 9 1.2e+15
2 9 9e+14
3 9 6e+14
4 9 1.2e+15
5 9 6e+14
6 9 1e+15
7 9 7e+14
8 9 1.1e+15
9 9 8e+14
10 9 1.1e+15
11 9 7e+14
12 9 7e+14
13 9 4e+14
14 9 1e+15
15 9 4e+14
16 9 1e+15
17 9 7e+14
18 9 1.2e+15
19 9 7e+14
20 9 7e+14
21 9 6e+14
22 9 8e+14
23 9 1e+15
24 9 6e+14
25 9 9e+14
26 9 8e+14
27 9 9e+14
28 9 6e+14
29 9 1e+15
30 9 8e+14
31 9 9e+14
32 9 9e+14
33 9 7e+14
34 9 7e+14
35 9 6e+14
36 9 9e+14
37 9 1e+15
38 9 7e+14
39 9 8e+14
40 9 7e+14
41 9 3e+14
42 9 1.1e+15
43 9 8e+14
44 9 5e+14
45 9 1.4e+15
46 9 1.2e+15
47 9 1.1e+15
48 9 7e+14
49 9 7e+14
50 9 8e+14
51 9 8e+14
52 9 1e+15
53 9 1.5e+15
54 9 8e+14
55 9 8e+14
56 9 1e+15
57 9 1.4e+15
58 9 6e+14
59 9 1e+15
60 9 1.3e+15
61 9 1e+15
62 9 1.2e+15
63 9 4e+14
64 9 1e+15
65 9 1.1e+15
66 9 1.3e+15
67 9 9e+14
68 9 8e+14
69 9 1.8e+15
70 9 9e+14
71 9 1.7e+15
72 9 1.2e+15
73 9 1e+15
74 9 1.6e+15
75 9 1.1e+15
76 9 1.8e+15
77 9 1.1e+15
78 9 8e+14
79 9 1.8e+15
80 9 1.6e+15
81 9 1.3e+15
82 9 1.6e+15
83 9 1.4e+15
84 9 8e+14
85 9 1.3e+15
86 9 1.5e+15
87 9 1.2e+15
88 9 9e+14
89 9 1.2e+15
90 9 1.4e+15
91 9 1.5e+15
92 9 1.9e+15
93 9 1.4e+15
94 9 1.3e+15
95 9 1.3e+15
96 9 1.2e+15
97 9 1.9e+15
98 9 1.3e+15
99 9 1.3e+15
100 9 1.1e+15
1 10 1.1e+15
2 10 7e+14
3 10 7e+14
4 10 8e+14
5 10 7e+14
6 10 7e+14
7 10 9e+14
8 10 6e+14
9 10 9e+14
10 10 6e+14
11 10 1.2e+15
12 10 9e+14
13 10 5e+14
14 10 9e+14
15 10 7e+14
16 10 5e+14
17 10 8e+14
18 10 7e+14
19 10 1.2e+15
20 10 2e+14
21 10 1.1e+15
22 10 6e+14
23 10 9e+14
24 10 1.1e+15
25 10 7e+14
26 10 8e+14
27 10 9e+14
28 10 9e+14
29 10 9e+14
30 10 4e+14
31 10 5e+14
32 10 9e+14
33 10 6e+14
34 10 9e+14
35 10 8e+14
36 10 8e+14
37 10 7e+14
38 10 9e+14
39 10 5e+14
40 10 1e+15
41 10 1.3e+15
42 10 9e+14
43 10 8e+14
44 10 7e+14
45 10 9e+14
46 10 9e+14
47 10 7e+14
48 10 1.2e+15
49 10 1e+15
50 10 5e+14
51 10 9e+14
52 10 6e+14
53 10 9e+14
54 10 9e+14
55 10 9e+14
56 10 1e+15
57 10 1.3e+15
58 10 8e+14
59 10 1.4e+15
60 10 7e+14
61 10 1.3e+15
62 10 7e+14
63 10 1.1e+15
64 10 1.5e+15
65 10 1e+15
66 10 1.3e+15
67 10 1.3e+15
68 10 1.5e+15
69 10 1.1e+15
70 10 1.5e+15
71 10 9e+14
72 10 1.6e+15
73 10 1.4e+15
74 10 1e+15
75 10 1.4e+15
76 10 1.2e+15
77 10 1.6e+15
78 10 1.4e+15
79 10 9e+14
80 10 1.6e+15
81 10 1.5e+15
82 10 1.1e+15
83 10 9e+14
84 10 1.7e+15
85 10 7e+14
86 10 1.5e+15
87 10 1.3e+15
88 10 1.4e+15
89 10 1.4e+15
90 10 1.5e+15
91 10 1.3e+15
92 10 8e+14
93 10 1.4e+15
94 10 1.5e+15
95 10 1.2e+15
96 10 1.2e+15
97 10 1.2e+15
98 10 8e+14
99 10 1.5e+15
100 10 1.1e+15
1 11 1e+15
2 11 8e+14
3 11 9e+14
4 11 8e+14
5 11 9e+14
6 11 9e+14
7 11 7e+14
8 11 7e+14
9 11 9e+14
10 11 6e+14
11 11 1.1e+15
12 11 7e+14
13 11 5e+14
14 11 1.6e+15
15 11 8e+14
16 11 9e+14
17 11 6e+14
18 11 6e+14
19 11 6e+14
20 11 9e+14
21 11 9e+14
22 11 6e+14
23 11 8e+14
24 11 6e+14
25 11 1e+15
26 11 7e+14
27 11 8e+14
28 11 1.2e+15
29 11 8e+14
30 11 8e+14
31 11 1.2e+15
32 11 6e+14
33 11 1.1e+15
34 11 1e+15
35 11 8e+14
36 11 5e+14
37 11 8e+14
38 11 1.1e+15
39 11 8e+14
40 11 9e+14
41 11 5e+14
42 11 5e+14
43 11 1e+15
44 11 7e+14
45 11 9e+14
46 11 7e+14
47 11 1.4e+15
48 11 5e+14
49 11 8e+14
50 11 1.3e+15
51 11 7e+14
52 11 1.1e+15
53 11 1.1e+15
54 11 9e+14
55 11 1.1e+15
56 11 7e+14
57 11 1.5e+15
58 11 1.1e+15
59 11 1.5e+15
60 11 8e+14
61 11 1.5e+15
62 11 1.1e+15
63 11 1.4e+15
64 11 1.8e+15
65 11 9e+14
66 11 9e+14
67 11 1.3e+15
68 11 1.6e+15
69 11 1.9e+15
70 11 1.4e+15
71 11 1e+15
72 11 1.7e+15
73 11 7e+14
74 11 1.3e+15
75 11 1.1e+15
76 11 1.2e+15
77 11 9e+14
78 11 1.1e+15
79 11 1.5e+15
80 11 1.3e+15
81 11 1e+15
82 11 1.3e+15
83 11 1.8e+15
84 11 1.4e+15
85 11 1.3e+15
86 11 1e+15
87 11 1.6e+15
88 11 1.3e+15
89 11 1.3e+15
90 11 1.4e+15
91 11 1.3e+15
92 11 1.4e+15
93 11 1.5e+15
94 11 9e+14
95 11 1.4e+15
96 11 9e+14
97 11 1.1e+15
98 11 1.6e+15
99 11 1.7e+15
100 11 1.2e+15
1 12 8e+14
2 12 6e+14
3 12 8e+14
4 12 9e+14
5 12 5e+14
6 12 8e+14
7 12 7e+14
8 12 7e+14
9 12 4e+14
10 12 1e+15
11 12 1e+15
12 12 8e+14
13 12 9e+14
14 12 8e+14
15 12 4e+14
16 12 7e+14
17 12 9e+14
18 12 7e+14
19 12 6e+14
20 12 4e+14
21 12 9e+14
22 12 3e+14
23 12 1e+15
24 12 7e+14
25 12 6e+14
26 12 5e+14
27 12 7e+14
28 12 9e+14
29 12 5e+14
30 12 8e+14
31 12 1e+15
32 12 7e+14
33 12 9e+14
34 12 9e+14
35 12 7e+14
36 12 7e+14
37 12 8e+14
38 12 9e+14
39 12 9e+14
40 12 7e+14
41 12 1e+15
42 12 9e+14
43 12 7e+14
44 12 1.1e+15
45 12 1e+15
46 12 8e+14
47 12 9e+14
48 12 5e+14
49 12 1.3e+15
50 12 9e+14
51 12 1.3e+15
52 12 1.3e+15
53 12 8e+14
54 12 7e+14
55 12 1e+15
56 12 8e+14
57 12 9e+14
58 12 7e+14
59 12 1.1e+15
60 12 9e+14
61 12 1e+15
62 12 9e+14
63 12 1.3e+15
64 12 8e+14
65 12 1.6e+15
66 12 1e+15
67 12 1.3e+15
68 12 1e+15
69 12 1e+15
70 12 1.1e+15
71 12 8e+14
72 12 1.7e+15
73 12 1.4e+15
74 12 1.2e+15
75 12 1.6e+15
76 12 1.6e+15
77 12 1.6e+15
78 12 1.5e+15
79 12 1e+15
80 12 1.5e+15
81 12 1.3e+15
82 12 1.1e+15
83 12 1.1e+15
84 12 1.8e+15
85 12 1.4e+15
86 12 1.2e+15
87 12 1.5e+15
88 12 1.3e+15
89 12 1.1e+15
90 12 1.4e+15
91 12 1.2e+15
92 12 1.2e+15
93 12 1.4e+15
94 12 1.3e+15
95 12 1.2e+15
96 12 1.8e+15
97 12 1.7e+15
98 12 8e+14
99 12 1.1e+15
100 12 1.2e+15
1 13 1.3e+15
2 13 9e+14
3 13 1.1e+15
4 13 3e+14
5 13 6e+14
6 13 9e+14
7 13 4e+14
8 13 7e+14
9 13 1.2e+15
10 13 3e+14
11 13 9e+14
12 13 4e+14
13 13 8e+14
14 13 1.1e+15
15 13 7e+14
16 13 9e+14
17 13 8e+14
18 13 1.2e+15
19 13 6e+14
20 13 7e+14
21 13 9e+14
22 13 8e+14
23 13 9e+14
24 13 1e+15
25 13 7e+14
26 13 1e+15
27 13 6e+14
28 13 8e+14
29 13 7e+14
30 13 3e+14
31 13 1e+15
32 13 6e+14
33 13 6e+14
34 13 9e+14
35 13 5e+14
36 13 1.1e+15
37 13 7e+14
38 13 1.1e+15
39 13 6e+14
40 13 7e+14
41 13 8e+14
42 13 1e+15
43 13 7e+14
44 13 8e+14
45 13 6e+14
46 13 8e+14
47 13 5e+14
48 13 1.2e+15
49 13 8e+14
50 13 1.1e+15
51 13 1.1e+15
52 13 8e+14
53 13 1.3e+15
54 13 1e+15
55 13 9e+14
56 13 1.1e+15
57 13 1.1e+15
58 13 1.2e+15
59 13 6e+14
60 13 1.1e+15
61 13 1.1e+15
62 13 1.6e+15
63 13 8e+14
64 13 1e+15
65 13 1.3e+15
66 13 1.3e+15
67 13 1.3e+15
68 13 1.4e+15
69 13 1.4e+15
70 13 1.6e+15
71 13 1e+15
72 13 1.5e+15
73 13 1.2e+15
74 13 1.7e+15
75 13 1.5e+15
76 13 1e+15
77 13 1.3e+15
78 13 1.5e+15
79 13 1.3e+15
80 13 1.3e+15
81 13 1.4e+15
82 13 1.8e+15
83 13 9e+14
84 13 1.1e+15
85 13 1.6e+15
86 13 1.3e+15
87 13 9e+14
88 13 1.6e+15
89 13 1.3e+15
90 13 1.4e+15
91 13 1.3e+15
92 13 1.3e+15
93 13 1.2e+15
94 13 1.9e+15
95 13 1.1e+15
96 13 1.2e+15
97 13 1.3e+15
98 13 1.6e+15
99 13 9e+14
100 13 1.4e+15
1 14 8e+14
2 14 7e+14
3 14 6e+14
4 14 7e+14
5 14 9e+14
6 14 7e+14
7 14 1e+15
8 14 1.2e+15
9 14 8e+14
10 14 1e+15
11 14 8e+14
12 14 4e+14
13 14 5e+14
14 14 6e+14
15 14 8e+14
16 14 5e+14
17 14 6e+14
18 14 7e+14
19 14 8e+14
20 14 6e+14
21 14 9e+14
22 14 9e+14
23 14 7e+14
24 14 7e+14
25 14 7e+14
26 14 8e+14
27 14 1.2e+15
28 14 6e+14
29 14 9e+14
30 14 9e+14
31 14 6e+14
32 14 7e+14
33 14 1.2e+15
34 14 7e+14
35 14 1e+15
36 14 6e+14
37 14 7e+14
38 14 1e+15
39 14 1e+15
40 14 6e+14
41 14 8e+14
42 14 8e+14
43 14 9e+14
44 14 1e+15
45 14 8e+14
46 14 1.1e+15
47 14 1.2e+15
48 14 6e+14
49 14 7e+14
50 14 2e+14
51 14 9e+14
52 14 8e+14
53 14 9e+14
54 14 1e+15
55 14 1.1e+15
56 14 9e+14
57 14 1.3e+15
58 14 9e+14
59 14 1.8e+15
60 14 1.1e+15
61 14 1.4e+15
62 14 1e+15
63 14 1e+15
64 14 2.1e+15
65 14 7e+14
66 14 1e+15
67 14 1.3e+15
68 14 1e+15
69 14 1.3e+15
70 14 1.3e+15
71 14 1.2e+15
72 14 1.7e+15
73 14 1.4e+15
74 14 1.1e+15
75 14 1.1e+15
76 14 1.5e+15
77 14 1.6e+15
78 14 1.3e+15
79 14 1.4e+15
80 14 1.5e+15
81 14 1.3e+15
82 14 1.4e+15
83 14 1.4e+15
84 14 1.2e+15
85 14 1.7e+15
86 14 1e+15
87 14 1.8e+15
88 14 1e+15
89 14 1.2e+15
90 14 1.5e+15
91 14 1.1e+15
92 14 1.5e+15
93 14 1.2e+15
94 14 1.7e+15
95 14 1.2e+15
96 14 1.3e+15
97 14 1.7e+15
98 14 1.1e+15
99 14 1.8e+15
100 14 1.2e+15
1 15 9e+14
2 15 5e+14
3 15 7e+14
4 15 8e+14
5 15 5e+14
6 15 6e+14
7 15 1.3e+15
8 15 3e+14
9 15 6e+14
10 15 7e+14
11 15 7e+14
12 15 7e+14
13 15 9e+14
14 15 8e+14
15 15 4e+14
16 15 9e+14
17 15 8e+14
18 15 9e+14
19 15 9e+14
20 15 6e+14
21 15 1e+15
22 15 5e+14
23 15 5e+14
24 15 9e+14
25 15 7e+14
26 15 6e+14
27 15 8e+14
28 15 8e+14
29 15 1e+15
30 15 9e+14
31 15 8e+14
32 15 7e+14
33 15 7e+14
34 15 6e+14
35 15 1.1e+15
36 15 7e+14
37 15 3e+14
38 15 1.1e+15
39 15 7e+14
40 15 8e+14
41 15 8e+14
42 15 3e+14
43 15 6e+14
44 15 7e+14
45 15 1.1e+15
46 15 9e+14
47 15 7e+14
48 15 1.1e+15
49 15 9e+14
50 15 1e+15
51 15 8e+14
52 15 1e+15
53 15 1e+15
54 15 1.3e+15
55 15 1e+15
56 15 9e+14
57 15 1.1e+15
58 15 9e+14
59 15 7e+14
60 15 1.1e+15
61 15 8e+14
62 15 1.1e+15
63 15 9e+14
64 15 1.4e+15
65 15 1.6e+15
66 15 1.4e+15
67 15 8e+14
68 15 2e+15
69 15 9e+14
70 15 1.4e+15
71 15 1.5e+15
72 15 1.6e+15
73 15 1e+15
74 15 1.6e+15
75 15 1.5e+15
76 15 1.4e+15
77 15 1.1e+15
78 15 1.2e+15
79 15 1.5e+15
80 15 1.5e+15
81 15 1.6e+15
82 15 1.2e+15
83 15 1.5e+15
84 15 1.3e+15
85 15 1.3e+15
86 15 1.2e+15
87 15 1.6e+15
88 15 1.5e+15
89 15 1.8e+15
90 15 1.4e+15
91 15 1.2e+15
92 15 1e+15
93 15 1.5e+15
94 15 1.3e+15
95 15 1e+15
96 15 1.2e+15
97 15 1.5e+15
98 15 9e+14
99 15 1.3e+15
100 15 1.7e+15
1 16 1e+15
2 16 8e+14
3 16 7e+14
4 16 7e+14
5 16 8e+14
6 16 6e+14
7 16 7e+14
8 16 9e+14
9 16 8e+14
10 16 9e+14
11 16 7e+14
12 16 8e+14
13 16 8e+14
14 16 7e+14
15 16 6e+14
16 16 9e+14
17 16 9e+14
18 16 9e+14
19 16 7e+14
20 16 6e+14
21 16 9e+14
22 16 6e+14
23 16 8e+14
24 16 6e+14
25 16 1e+15
26 16 8e+14
27 16 5e+14
28 16 8e+14
29 16 6e+14
30 16 7e+14
31 16 7e+14
32 16 1e+15
33 16 7e+14
34 16 7e+14
35 16 2e+14
36 16 7e+14
37 16 5e+14
38 16 8e+14
39 16 9e+14
40 16 8e+14
41 16 1.2e+15
42 16 1e+15
43 16 1.3e+15
44 16 6e+14
45 16 9e+14
46 16 9e+14
47 16 9e+14
48 16 5e+14
49 16 1.1e+15
50 16 1e+15
51 16 8e+14
52 16 7e+14
53 16 5e+14
54 16 9e+14
55 16 1e+15
56 16 9e+14
57 16 8e+14
58 16 1.6e+15
59 16 1.2e+15
60 16 1.1e+15
61 16 1.3e+15
62 16 1e+15
63 16 1.1e+15
64 16 1.6e+15
65 16 8e+14
66 16 1.2e+15
67 16 1.1e+15
68 16 1.7e+15
69 16 1.4e+15
70 16 1.3e+15
71 16 1.3e+15
72 16 1.3e+15
73 16 1.7e+15
74 16 1.1e+15
75 16 1.7e+15
76 16 1.6e+15
77 16 2.1e+15
78 16 1.4e+15
79 16 1.2e+15
80 16 1.3e+15
81 16 1.1e+15
82 16 1.7e+15
83 16 1.8e+15
84 16 9e+14
85 16 1.5e+15
86 16 1.8e+15
87 16 1.2e+15
88 16 1.2e+15
89 16 1.4e+15
90 16 1.2e+15
91 16 1.8e+15
92 16 1.6e+15
93 16 1.6e+15
94 16 1.3e+15
95 16 1.3e+15
96 16 1.8e+15
97 16 1e+15
98 16 1.3e+15
99 16 1.2e+15
100 16 1.3e+15
1 17 8e+14
2 17 7e+14
3 17 8e+14
4 17 1e+15
5 17 6e+14
6 17 1.1e+15
7 17 7e+14
8 17 7e+14
9 17 1e+15
10 17 8e+14
11 17 7e+14
12 17 1e+15
13 17 7e+14
14 17 9e+14
15 17 6e+14
16 17 8e+14
17 17 1e+15
18 17 7e+14
19 17 8e+14
20 17 9e+14
21 17 7e+14
22 17 8e+14
23 17 8e+14
24 17 8e+14
25 17 9e+14
26 17 7e+14
27 17 8e+14
28 17 6e+14
29 17 7e+14
30 17 1e+15
31 17 5e+14
32 17 7e+14
33 17 6e+14
34 17 9e+14
35 17 1e+15
36 17 1e+15
37 17 8e+14
38 17 4e+14
39 17 7e+14
40 17 5e+14
41 17 1e+15
42 17 4e+14
43 17 8e+14
44 17 6e+14
45 17 1.1e+15
46 17 5e+14
47 17 6e+14
48 17 9e+14
49 17 7e+14
50 17 9e+14
51 17 1e+15
52 17 1.1e+15
53 17 9e+14
54 17 1e+15
55 17 8e+14
56 17 9e+14
57 17 1.2e+15
58 17 1e+15
59 17 1.2e+15
60 17 9e+14
61 17 1.1e+15
62 17 1.3e+15
63 17 1.6e+15
64 17 1.1e+15
65 17 1.3e+15
66 17 1.2e+15
67 17 2.3e+15
68 17 1e+15
69 17 1.5e+15
70 17 1.6e+15
71 17 1.2e+15
72 17 1.5e+15
73 17 1.3e+15
74 17 1.6e+15
75 17 1.3e+15
76 17 1.5e+15
77 17 9e+14
78 17 1.2e+15
79 17 1.5e+15
80 17 1.6e+15
81 17 1.3e+15
82 17 1.4e+15
83 17 7e+14
84 17 1.1e+15
85 17 1.7e+15
86 17 1.1e+15
87 17 1.3e+15
88 17 1.6e+15
89 17 1.2e+15
90 17 1.2e+15
91 17 1.1e+15
92 17 1.2e+15
93 17 1.3e+15
94 17 1.4e+15
95 17 2e+15
96 17 1e+15
97 17 1.3e+15
98 17 1e+15
99 17 1.4e+15
100 17 1.2e+15
1 18 5e+14
2 18 6e+14
3 18 1.1e+15
4 18 9e+14
5 18 6e+14
6 18 8e+14
7 18 6e+14
8 18 9e+14
9 18 7e+14
10 18 1e+15
11 18 5e+14
12 18 8e+14
13 18 7e+14
14 18 7e+14
15 18 9e+14
16 18 8e+14
17 18 8e+14
18 18 9e+14
19 18 6e+14
20 18 9e+14
21 18 9e+14
22 18 3e+14
23 18 8e+14
24 18 7e+14
25 18 1e+15
26 18 6e+14
27 18 9e+14
28 18 1.2e+15
29 18 7e+14
30 18 4e+14
31 18 7e+14
32 18 7e+14
33 18 1e+15
34 18 9e+14
35 18 6e+14
36 18 8e+14
37 18 9e+14
38 18 7e+14
39 18 8e+14
40 18 1e+15
41 18 7e+14
42 18 9e+14
43 18 8e+14
44 18 8e+14
45 18 3e+14
46 18 1.2e+15
47 18 9e+14
48 18 1e+15
49 18 1.1e+15
50 18 8e+14
51 18 9e+14
52 18 7e+14
53 18 1.1e+15
54 18 1e+15
55 18 6e+14
56 18 1.2e+15
57 18 9e+14
58 18 7e+14
59 18 8e+14
60 18 1.6e+15
61 18 1e+15
62 18 1.6e+15
63 18 1.6e+15
64 18 1.3e+15
65 18 1e+15
66 18 1.3e+15
67 18 1.3e+15
68 18 1.7e+15
69 18 1.2e+15
70 18 2.1e+15
71 18 1.3e+15
72 18 1.5e+15
73 18 1.6e+15
74 18 1.2e+15
75 18 1.7e+15
76 18 1.4e+15
77 18 1.5e+15
78 18 1.6e+15
79 18 1.4e+15
80 18 1.6e+15
81 18 1.8e+15
82 18 1.4e+15
83 18 1.5e+15
84 18 1.5e+15
85 18 1.7e+15
86 18 1.2e+15
87 18 1.3e+15
88 18 1.1e+15
89 18 1.3e+15
90 18 1.2e+15
91 18 1.1e+15
92 18 1e+15
93 18 1.3e+15
94 18 1.1e+15
95 18 1.6e+15
96 18 1.1e+15
97 18 1.5e+15
98 18 1.4e+15
99 18 1.5e+15
100 18 1.2e+15
1 19 9e+14
2 19 1.1e+15
3 19 6e+14
4 19 1e+15
5 19 2e+14
6 19 8e+14
7 19 7e+14
8 19 7e+14
9 19 7e+14
10 19 7e+14
11 19 1e+15
12 19 8e+14
13 19 4e+14
14 19 1.1e+15
15 19 7e+14
16 19 1e+15
17 19 8e+14
18 19 5e+14
19 19 7e+14
20 19 6e+14
21 19 7e+14
22 19 9e+14
23 19 6e+14
24 19 7e+14
25 19 8e+14
26 19 7e+14
27 19 8e+14
28 19 4e+14
29 19 7e+14
30 19 8e+14
31 19 1.1e+15
32 19 7e+14
33 19 9e+14
34 19 1e+15
35 19 6e+14
36 19 1.2e+15
37 19 5e+14
38 19 6e+14
39 19 7e+14
40 19 5e+14
41 19 1.4e+15
42 19 9e+14
43 19 9e+14
44 19 1.2e+15
45 19 8e+14
46 19 4e+14
47 19 7e+14
48 19 6e+14
49 19 9e+14
50 19 1.2e+15
51 19 8e+14
52 19 1.4e+15
53 19 7e+14
54 19 8e+14
55 19 1.2e+15
56 19 1e+15
57 19 1e+15
58 19 1.1e+15
59 19 1.2e+15
60 19 1.1e+15
61 19 1.1e+15
62 19 1.6e+15
63 19 1.2e+15
64 19 1e+15
65 19 1.8e+15
66 19 1.2e+15
67 19 1.4e+15
68 19 1.7e+15
69 19 1.5e+15
70 19 1e+15
71 19 1.6e+15
72 19 1.4e+15
73 19 1.5e+15
74 19 1.9e+15
75 19 1.7e+15
76 19 1.4e+15
77 19 1.4e+15
78 19 1.4e+15
79 19 1.2e+15
80 19 1.4e+15
81 19 1.5e+15
82 19 1.4e+15
83 19 1.8e+15
84 19 1.2e+15
85 19 1.2e+15
86 19 1.4e+15
87 19 1.4e+15
88 19 1.1e+15
89 19 1.6e+15
90 19 1.4e+15
91 19 1.3e+15
92 19 1.5e+15
93 19 1.4e+15
94 19 1.4e+15
95 19 1.2e+15
96 19 1.3e+15
97 19 1e+15
98 19 1.3e+15
99 19 1.1e+15
100 19 1.3e+15
1 20 9e+14
2 20 5e+14
3 20 6e+14
4 20 7e+14
5 20 1e+15
6 20 7e+14
7 20 1e+15
8 20 8e+14
9 20 1.1e+15
10 20 8e+14
11 20 5e+14
12 20 9e+14
13 20 7e+14
14 20 7e+14
15 20 7e+14
16 20 7e+14
17 20 9e+14
18 20 1.2e+15
19 20 6e+14
20 20 1e+15
21 20 6e+14
22 20 5e+14
23 20 9e+14
24 20 6e+14
25 20 1e+15
26 20 2e+14
27 20 1e+15
28 20 8e+14
29 20 6e+14
30 20 3e+14
31 20 8e+14
32 20 1.2e+15
33 20 7e+14
34 20 7e+14
35 20 2e+14
36 20 9e+14
37 20 6e+14
38 20 5e+14
39 20 5e+14
40 20 9e+14
41 20 4e+14
42 20 7e+14
43 20 3e+14
44 20 6e+14
45 20 7e+14
46 20 1.1e+15
47 20 1e+15
48 20 8e+14
49 20 7e+14
50 20 9e+14
51 20 6e+14
52 20 8e+14
53 20 1e+15
54 20 8e+14
55 20 8e+14
56 20 1.2e+15
57 20 1e+15
58 20 1.2e+15
59 20 1.3e+15
60 20 8e+14
61 20 1.1e+15
62 20 1e+15
63 20 1e+15
64 20 1.2e+15
65 20 1.1e+15
66 20 1.4e+15
67 20 1.7e+15
68 20 1.3e+15
69 20 1.7e+15
70 20 1.5e+15
71 20 1.5e+15
72 20 1.3e+15
73 20 1.4e+15
74 20 1.1e+15
75 20 1.3e+15
76 20 2.2e+15
77 20 1.4e+15
78 20 1.8e+15
79 20 1e+15
80 20 2e+15
81 20 1e+15
82 20 1.3e+15
83 20 1.3e+15
84 20 1.4e+15
85 20 1.5e+15
86 20 1.5e+15
87 20 1.3e+15
88 20 1.5e+15
89 20 1.5e+15
90 20 1e+15
91 20 1.7e+15
92 20 1.5e+15
93 20 1.1e+15
94 20 1.3e+15
95 20 1.3e+15
96 20 1.2e+15
97 20 1.7e+15
98 20 1e+15
99 20 1.5e+15
100 20 1.4e+15
1 21 1e+15
2 21 9e+14
3 21 9e+14
4 21 5e+14
5 21 7e+14
6 21 1.3e+15
7 21 5e+14
8 21 6e+14
9 21 7e+14
10 21 7e+14
11 21 8e+14
12 21 1e+15
13 21 4e+14
14 21 9e+14
15 21 4e+14
16 21 9e+14
17 21 4e+14
18 21 6e+14
19 21 5e+14
20 21 1.1e+15
21 21 6e+14
22 21 9e+14
23 21 1e+15
24 21 1.3e+15
25 21 5e+14
26 21 7e+14
27 21 8e+14
28 21 9e+14
29 21 4e+14
30 21 9e+14
31 21 4e+14
32 21 8e+14
33 21 6e+14
34 21 7e+14
35 21 9e+14
36 21 9e+14
37 21 6e+14
38 21 7e+14
39 21 6e+14
40 21 1e+15
41 21 7e+14
42 21 4e+14
43 21 1.2e+15
44 21 7e+14
45 21 9e+14
46 21 7e+14
47 21 1.1e+15
48 21 8e+14
49 21 1e+15
50 21 4e+14
51 21 9e+14
52 21 7e+14
53 21 8e+14
54 21 1e+15
55 21 1.1e+15
56 21 8e+14
57 21 1.1e+15
58 21 1.2e+15
59 21 1.3e+15
60 21 9e+14
61 21 1e+15
62 21 1.4e+15
63 21 1.6e+15
64 21 1.5e+15
65 21 1.9e+15
66 21 1.7e+15
67 21 1.3e+15
68 21 1.4e+15
69 21 1.7e+15
70 21 1.6e+15
71 21 1.5e+15
72 21 1.8e+15
73 21 1.9e+15
74 21 1.9e+15
75 21 1.3e+15
76 21 1.9e+15
77 21 1.7e+15
78 21 1.7e+15
79 21 1.1e+15
80 21 1.8e+15
81 21 1.5e+15
82 21 1.6e+15
83 21 1.5e+15
84 21 1.2e+15
85 21 1.3e+15
86 21 1.4e+15
87 21 1.5e+15
88 21 1.4e+15
89 21 1.4e+15
90 21 1.4e+15
91 21 1.6e+15
92 21 1.1e+15
93 21 1.7e+15
94 21 1.3e+15
95 21 1.1e+15
96 21 1.2e+15
97 21 1.9e+15
98 21 1.1e+15
99 21 1.2e+15
100 21 9e+14
1 22 1.1e+15
2 22 5e+14
3 22 7e+14
4 22 1e+15
5 22 4e+14
6 22 9e+14
7 22 6e+14
8 22 8e+14
9 22 6e+14
10 22 8e+14
11 22 9e+14
12 22 8e+14
13 22 1.2e+15
14 22 7e+14
15 22 6e+14
16 22 6e+14
17 22 9e+14
18 22 9e+14
19 22 6e+14
20 22 7e+14
21 22 9e+14
22 22 4e+14
23 22 5e+14
24 22 7e+14
25 22 6e+14
26 22 1.2e+15
27 22 6e+14
28 22 5e+14
29 22 1.1e+15
30 22 8e+14
31 22 7e+14
32 22 6e+14
33 22 8e+14
34 22 6e+14
35 22 5e+14
36 22 8e+14
37 22 9e+14
38 22 1e+15
39 22 1e+15
40 22 9e+14
41 22 7e+14
42 22 7e+14
43 22 9e+14
44 22 7e+14
45 22 9e+14
46 22 7e+14
47 22 7e+14
48 22 9e+14
49 22 8e+14
50 22 4e+14
51 22 1e+15
52 22 9e+14
53 22 1e+15
54 22 1e+15
55 22 8e+14
56 22 1.1e+15
57 22 1.3e+15
58 22 1e+15
59 22 1.2e+15
60 22 1e+15
61 22 1.3e+15
62 22 1.3e+15
63 22 1.2e+15
64 22 1e+15
65 22 1.7e+15
66 22 1.5e+15
67 22 2.2e+15
68 22 1.2e+15
69 22 1.7e+15
70 22 1.8e+15
71 22 1.7e+15
72 22 1.5e+15
73 22 1.5e+15
74 22 1.2e+15
75 22 1.4e+15
76 22 1.3e+15
77 22 1.9e+15
78 22 1.3e+15
79 22 1.5e+15
80 22 1.4e+15
81 22 1.7e+15
82 22 1.4e+15
83 22 1.6e+15
84 22 1.8e+15
85 22 9e+14
86 22 1.7e+15
87 22 1.3e+15
88 22 1.4e+15
89 22 1.4e+15
90 22 1.4e+15
91 22 1.3e+15
92 22 1.8e+15
93 22 1e+15
94 22 8e+14
95 22 1.8e+15
96 22 1.4e+15
97 22 1.7e+15
98 22 1.5e+15
99 22 7e+14
100 22 1.6e+15
1 23 9e+14
2 23 6e+14
3 23 8e+14
4 23 1.1e+15
5 23 6e+14
6 23 8e+14
7 23 6e+14
8 23 8e+14
9 23 7e+14
10 23 1.1e+15
11 23 8e+14
12 23 9e+14
13 23 3e+14
14 23 6e+14
15 23 6e+14
16 23 9e+14
17 23 8e+14
18 23 5e+14
19 23 1.2e+15
20 23 8e+14
21 23 7e+14
22 23 8e+14
23 23 7e+14
24 23 8e+14
25 23 7e+14
26 23 5e+14
27 23 9e+14
28 23 8e+14
29 23 6e+14
30 23 6e+14
31 23 8e+14
32 23 1.2e+15
33 23 6e+14
34 23 3e+14
35 23 6e+14
36 23 7e+14
37 23 5e+14
38 23 5e+14
39 23 7e+14
40 23 7e+14
41 23 1e+15
42 23 5e+14
43 23 6e+14
44 23 1e+15
45 23 6e+14
46 23 6e+14
47 23 8e+14
48 23 7e+14
49 23 8e+14
50 23 6e+14
51 23 1.1e+15
52 23 9e+14
53 23 8e+14
54 23 5e+14
55 23 1.5e+15
56 23 1e+15
57 23 1e+15
58 23 7e+14
59 23 1.3e+15
60 23 1.3e+15
61 23 1.2e+15
62 23 1.7e+15
63 23 1.5e+15
64 23 1.4e+15
65 23 1.2e+15
66 23 1.7e+15
67 23 7e+14
68 23 1.7e+15
69 23 2.1e+15
70 23 1.9e+15
71 23 2.1e+15
72 23 1.4e+15
73 23 1.9e+15
74 23 1.5e+15
75 23 2.1e+15
76 23 1.1e+15
77 23 1.4e+15
78 23 1.5e+15
79 23 1.6e+15
80 23 1.6e+15
81 23 1.7e+15
82 23 1.8e+15
83 23 1.1e+15
84 23 1.3e+15
85 23 1.7e+15
86 23 1.1e+15
87 23 1.3e+15
88 23 1.1e+15
89 23 1.1e+15
90 23 1.4e+15
91 23 9e+14
92 23 1.3e+15
93 23 1.6e+15
94 23 1.7e+15
95 23 1.1e+15
96 23 1.2e+15
97 23 1.3e+15
98 23 1.1e+15
99 23 1.1e+15
100 23 1.4e+15
1 24 1e+15
2 24 1.2e+15
3 24 9e+14
4 24 5e+14
5 24 6e+14
6 24 7e+14
7 24 9e+14
8 24 7e+14
9 24 9e+14
10 24 7e+14
11 24 1e+15
12 24 4e+14
13 24 7e+14
14 24 7e+14
15 24 8e+14
16 24 9e+14
17 24 9e+14
18 24 5e+14
19 24 6e+14
20 24 9e+14
21 24 4e+14
22 24 7e+14
23 24 7e+14
24 24 7e+14
25 24 5e+14
26 24 1e+15
27 24 1e+15
28 24 5e+14
29 24 9e+14
30 24 8e+14
31 24 7e+14
32 24 5e+14
33 24 9e+14
34 24 9e+14
35 24 9e+14
36 24 6e+14
37 24 1e+15
38 24 8e+14
39 24 8e+14
40 24 7e+14
41 24 8e+14
42 24 6e+14
43 24 1e+15
44 24 7e+14
45 24 8e+14
46 24 7e+14
47 24 8e+14
48 24 5e+14
49 24 6e+14
50 24 8e+14
51 24 7e+14
52 24 9e+14
53 24 9e+14
54 24 8e+14
55 24 1e+15
56 24 1.3e+15
57 24 1.1e+15
58 24 1.3e+15
59 24 1e+15
60 24 1.3e+15
61 24 1.7e+15
62 24 1.1e+15
63 24 1.8e+15
64 24 1.6e+15
65 24 1.7e+15
66 24 1.6e+15
67 24 1.8e+15
68 24 1.4e+15
69 24 2e+15
70 24 1.7e+15
71 24 1.4e+15
72 24 1.3e+15
73 24 2.2e+15
74 24 2e+15
75 24 1.7e+15
76 24 1.7e+15
77 24 2.3e+15
78 24 1.6e+15
79 24 2.1e+15
80 24 1.1e+15
81 24 1.7e+15
82 24 1.4e+15
83 24 2e+15
84 24 1.3e+15
85 24 1.1e+15
86 24 1.7e+15
87 24 1.3e+15
88 24 1.5e+15
89 24 1.3e+15
90 24 1.2e+15
91 24 1.4e+15
92 24 1.2e+15
93 24 1.4e+15
94 24 1.1e+15
95 24 9e+14
96 24 1.3e+15
97 24 1.3e+15
98 24 1.7e+15
99 24 1.4e+15
100 24 9e+14
1 25 9e+14
2 25 7e+14
3 25 8e+14
4 25 9e+14
5 25 1e+15
6 25 7e+14
7 25 7e+14
8 25 8e+14
9 25 9e+14
10 25 4e+14
11 25 1.2e+15
12 25 5e+14
13 25 8e+14
14 25 1e+15
15 25 6e+14