title="eDensity"
variables = "x","y","num"
zone i=100,j=100,f=point
1 1 1.3e+15
2 1 1e+15
3 1 9e+14
4 1 4e+14
5 1 4e+14
6 1 4e+14
7 1 3e+14
8 1 3e+14
9 1 2e+14
10 1 2e+14
11 1 1e+14
12 1 1e+14
13 1 1e+14
14 1 0
15 1 1e+14
16 1 1e+14
17 1 0
18 1 1e+14
19 1 0
20 1 0
21 1 0
22 1 2e+14
23 1 1e+14
24 1 0
25 1 0
26 1 0
27 1 0
28 1 0
29 1 1e+14
30 1 1e+14
31 1 0
32 1 0
33 1 1e+14
34 1 0
35 1 0
36 1 1e+14
37 1 0
38 1 0
39 1 0
40 1 1e+14
41 1 0
42 1 0
43 1 0
44 1 1e+14
45 1 0
46 1 0
47 1 2e+14
48 1 0
49 1 0
50 1 1e+14
51 1 1e+14
52 1 0
53 1 0
54 1 2e+14
55 1 0
56 1 1e+14
57 1 0
58 1 1e+14
59 1 0
60 1 0
61 1 1e+14
62 1 1e+14
63 1 0
64 1 1e+14
65 1 0
66 1 0
67 1 1e+14
68 1 0
69 1 0
70 1 0
71 1 1e+14
72 1 1e+14
73 1 0
74 1 0
75 1 1e+14
76 1 0
77 1 0
78 1 0
79 1 0
80 1 0
81 1 1e+14
82 1 0
83 1 0
84 1 2e+14
85 1 1e+14
86 1 1e+14
87 1 1e+14
88 1 1e+14
89 1 1e+14
90 1 2e+14
91 1 2e+14
92 1 0
93 1 1e+14
94 1 0
95 1 0
96 1 2e+14
97 1 3e+14
98 1 7e+14
99 1 7e+14
100 1 1.1e+15
1 2 3e+14
2 2 1.6e+15
3 2 1.2e+15
4 2 9e+14
5 2 5e+14
6 2 8e+14
7 2 9e+14
8 2 3e+14
9 2 4e+14
10 2 6e+14
11 2 3e+14
12 2 2e+14
13 2 3e+14
14 2 2e+14
15 2 1e+14
16 2 1e+14
17 2 1e+14
18 2 1e+14
19 2 2e+14
20 2 3e+14
21 2 1e+14
22 2 1e+14
23 2 0
24 2 0
25 2 2e+14
26 2 1e+14
27 2 0
28 2 0
29 2 0
30 2 1e+14
31 2 0
32 2 1e+14
33 2 0
34 2 1e+14
35 2 1e+14
36 2 1e+14
37 2 0
38 2 0
39 2 1e+14
40 2 0
41 2 0
42 2 2e+14
43 2 0
44 2 2e+14
45 2 1e+14
46 2 1e+14
47 2 1e+14
48 2 0
49 2 0
50 2 0
51 2 0
52 2 0
53 2 1e+14
54 2 0
55 2 2e+14
56 2 0
57 2 2e+14
58 2 0
59 2 0
60 2 1e+14
61 2 1e+14
62 2 1e+14
63 2 0
64 2 1e+14
65 2 0
66 2 1e+14
67 2 1e+14
68 2 0
69 2 0
70 2 0
71 2 1e+14
72 2 0
73 2 0
74 2 2e+14
75 2 1e+14
76 2 0
77 2 1e+14
78 2 0
79 2 1e+14
80 2 0
81 2 1e+14
82 2 4e+14
83 2 2e+14
84 2 1e+14
85 2 0
86 2 2e+14
87 2 1e+14
88 2 1e+14
89 2 0
90 2 0
91 2 2e+14
92 2 1e+14
93 2 1e+14
94 2 6e+14
95 2 6e+14
96 2 1.1e+15
97 2 9e+14
98 2 8e+14
99 2 8e+14
100 2 5e+14
1 3 5e+14
2 3 5e+14
3 3 1.4e+15
4 3 1.8e+15
5 3 1.4e+15
6 3 1.2e+15
7 3 1.6e+15
8 3 1.6e+15
9 3 1.1e+15
10 3 1.7e+15
11 3 1.1e+15
12 3 1.1e+15
13 3 1.4e+15
14 3 9e+14
15 3 1.1e+15
16 3 1.4e+15
17 3 1.9e+15
18 3 9e+14
19 3 7e+14
20 3 5e+14
21 3 4e+14
22 3 1e+14
23 3 4e+14
24 3 4e+14
25 3 3e+14
26 3 1e+14
27 3 7e+14
28 3 9e+14
29 3 1.2e+15
30 3 8e+14
31 3 8e+14
32 3 1.2e+15
33 3 1.3e+15
34 3 1.4e+15
35 3 1.7e+15
36 3 2e+15
37 3 1.7e+15
38 3 1.9e+15
39 3 2.5e+15
40 3 1.9e+15
41 3 1.1e+15
42 3 2.4e+15
43 3 1.8e+15
44 3 2.1e+15
45 3 2.9e+15
46 3 2.7e+15
47 3 2.5e+15
48 3 2.9e+15
49 3 2.7e+15
50 3 2.7e+15
51 3 3.5e+15
52 3 2.6e+15
53 3 2.3e+15
54 3 2.8e+15
55 3 2.9e+15
56 3 1.6e+15
57 3 2.8e+15
58 3 2.4e+15
59 3 2.3e+15
60 3 2.2e+15
61 3 2.5e+15
62 3 1.1e+15
63 3 9e+14
64 3 1.8e+15
65 3 1.5e+15
66 3 9e+14
67 3 6e+14
68 3 3e+14
69 3 3e+14
70 3 2e+14
71 3 5e+14
72 3 2e+14
73 3 0
74 3 2e+14
75 3 3e+14
76 3 1e+14
77 3 2e+14
78 3 3e+14
79 3 3e+14
80 3 7e+14
81 3 5e+14
82 3 6e+14
83 3 1.3e+15
84 3 6e+14
85 3 9e+14
86 3 1.5e+15
87 3 1.4e+15
88 3 5e+14
89 3 1.4e+15
90 3 1.4e+15
91 3 1.2e+15
92 3 1.4e+15
93 3 1.7e+15
94 3 2.3e+15
95 3 2.4e+15
96 3 2.6e+15
97 3 1.9e+15
98 3 1.2e+15
99 3 1.3e+15
100 3 7e+14
1 4 7e+14
2 4 7e+14
3 4 9e+14
4 4 1.7e+15
5 4 1.3e+15
6 4 1.1e+15
7 4 1.2e+15
8 4 8e+14
9 4 1.1e+15
10 4 2e+15
11 4 1e+15
12 4 6e+14
13 4 2.5e+15
14 4 1.3e+15
15 4 8e+14
16 4 1.4e+15
17 4 1.3e+15
18 4 1.2e+15
19 4 2e+15
20 4 1.6e+15
21 4 2.2e+15
22 4 2e+15
23 4 1.5e+15
24 4 2.3e+15
25 4 2.3e+15
26 4 2.6e+15
27 4 2.2e+15
28 4 2.1e+15
29 4 1.5e+15
30 4 1.8e+15
31 4 2e+15
32 4 2e+15
33 4 1.6e+15
34 4 1.9e+15
35 4 1.1e+15
36 4 1.1e+15
37 4 1.3e+15
38 4 1.5e+15
39 4 1.1e+15
40 4 1e+15
41 4 9e+14
42 4 9e+14
43 4 1.2e+15
44 4 1.4e+15
45 4 1e+15
46 4 8e+14
47 4 8e+14
48 4 1.1e+15
49 4 1e+15
50 4 9e+14
51 4 6e+14
52 4 6e+14
53 4 8e+14
54 4 7e+14
55 4 1e+15
56 4 1.1e+15
57 4 1.2e+15
58 4 1.4e+15
59 4 1.2e+15
60 4 7e+14
61 4 1.9e+15
62 4 1.4e+15
63 4 1.8e+15
64 4 2.2e+15
65 4 1.7e+15
66 4 2.8e+15
67 4 2.6e+15
68 4 2.5e+15
69 4 2.5e+15
70 4 2.2e+15
71 4 2.7e+15
72 4 2.5e+15
73 4 2.8e+15
74 4 2.7e+15
75 4 2.3e+15
76 4 2.4e+15
77 4 2.4e+15
78 4 2e+15
79 4 1.7e+15
80 4 2.2e+15
81 4 1.4e+15
82 4 1.4e+15
83 4 1.1e+15
84 4 1.9e+15
85 4 1.4e+15
86 4 1e+15
87 4 1.8e+15
88 4 2.7e+15
89 4 1.2e+15
90 4 8e+14
91 4 1.9e+15
92 4 2.6e+15
93 4 5e+14
94 4 8e+14
95 4 3e+14
96 4 6e+14
97 4 4e+14
98 4 1.6e+15
99 4 9e+14
100 4 5e+14
1 5 1e+14
2 5 1.1e+15
3 5 1e+15
4 5 1.6e+15
5 5 1.5e+15
6 5 1.3e+15
7 5 1.6e+15
8 5 1.3e+15
9 5 1.7e+15
10 5 9e+14
11 5 9e+14
12 5 1.2e+15
13 5 1e+15
14 5 1.7e+15
15 5 1.4e+15
16 5 1e+15
17 5 1.7e+15
18 5 7e+14
19 5 1.5e+15
20 5 1.1e+15
21 5 1.3e+15
22 5 1e+15
23 5 1.1e+15
24 5 6e+14
25 5 1.2e+15
26 5 1.5e+15
27 5 7e+14
28 5 1e+15
29 5 8e+14
30 5 8e+14
31 5 9e+14
32 5 6e+14
33 5 1.5e+15
34 5 8e+14
35 5 8e+14
36 5 8e+14
37 5 6e+14
38 5 6e+14
39 5 1.1e+15
40 5 6e+14
41 5 1.1e+15
42 5 1.5e+15
43 5 7e+14
44 5 5e+14
45 5 6e+14
46 5 1e+15
47 5 9e+14
48 5 8e+14
49 5 5e+14
50 5 8e+14
51 5 7e+14
52 5 1.4e+15
53 5 8e+14
54 5 1.2e+15
55 5 1.2e+15
56 5 5e+14
57 5 8e+14
58 5 8e+14
59 5 6e+14
60 5 1e+15
61 5 1.2e+15
62 5 8e+14
63 5 9e+14
64 5 1.4e+15
65 5 6e+14
66 5 6e+14
67 5 8e+14
68 5 8e+14
69 5 9e+14
70 5 8e+14
71 5 1.1e+15
72 5 8e+14
73 5 1e+15
74 5 5e+14
75 5 1.2e+15
76 5 9e+14
77 5 9e+14
78 5 1.1e+15
79 5 1.1e+15
80 5 9e+14
81 5 1.3e+15
82 5 1.6e+15
83 5 9e+14
84 5 1.1e+15
85 5 1.4e+15
86 5 1.6e+15
87 5 8e+14
88 5 9e+14
89 5 8e+14
90 5 9e+14
91 5 1e+15
92 5 1.8e+15
93 5 7e+14
94 5 9e+14
95 5 7e+14
96 5 1.8e+15
97 5 1.5e+15
98 5 1.5e+15
99 5 9e+14
100 5 4e+14
1 6 6e+14
2 6 1.3e+15
3 6 3e+14
4 6 1e+15
5 6 1.3e+15
6 6 3e+14
7 6 9e+14
8 6 3e+14
9 6 2.1e+15
10 6 1.5e+15
11 6 1.1e+15
12 6 1.3e+15
13 6 1.1e+15
14 6 8e+14
15 6 1.3e+15
16 6 1.1e+15
17 6 8e+14
18 6 1e+15
19 6 8e+14
20 6 8e+14
21 6 8e+14
22 6 7e+14
23 6 1.2e+15
24 6 6e+14
25 6 1.2e+15
26 6 1.1e+15
27 6 8e+14
28 6 6e+14
29 6 6e+14
30 6 6e+14
31 6 1.3e+15
32 6 5e+14
33 6 9e+14
34 6 9e+14
35 6 5e+14
36 6 1e+15
37 6 7e+14
38 6 1e+15
39 6 1.4e+15
40 6 5e+14
41 6 3e+14
42 6 9e+14
43 6 1.3e+15
44 6 5e+14
45 6 1e+15
46 6 6e+14
47 6 4e+14
48 6 8e+14
49 6 1.6e+15
50 6 9e+14
51 6 4e+14
52 6 7e+14
53 6 3e+14
54 6 3e+14
55 6 6e+14
56 6 5e+14
57 6 7e+14
58 6 5e+14
59 6 6e+14
60 6 9e+14
61 6 1e+15
62 6 7e+14
63 6 1e+15
64 6 6e+14
65 6 7e+14
66 6 7e+14
67 6 1e+15
68 6 1.1e+15
69 6 6e+14
70 6 1.2e+15
71 6 7e+14
72 6 8e+14
73 6 3e+14
74 6 6e+14
75 6 1.4e+15
76 6 1.5e+15
77 6 1.1e+15
78 6 1.4e+15
79 6 1.3e+15
80 6 1e+15
81 6 1e+15
82 6 1.5e+15
83 6 9e+14
84 6 1.7e+15
85 6 7e+14
86 6 8e+14
87 6 8e+14
88 6 8e+14
89 6 1.2e+15
90 6 1.2e+15
91 6 1.8e+15
92 6 9e+14
93 6 3e+14
94 6 1.2e+15
95 6 8e+14
96 6 1.3e+15
97 6 1.2e+15
98 6 5e+14
99 6 8e+14
100 6 2e+14
1 7 0
2 7 1.4e+15
3 7 7e+14
4 7 1.3e+15
5 7 1.2e+15
6 7 9e+14
7 7 9e+14
8 7 7e+14
9 7 1.7e+15
10 7 1.9e+15
11 7 1.3e+15
12 7 1.6e+15
13 7 1.5e+15
14 7 1.6e+15
15 7 8e+14
16 7 1.3e+15
17 7 1.5e+15
18 7 1.1e+15
19 7 1.5e+15
20 7 1.3e+15
21 7 1.3e+15
22 7 1e+15
23 7 1.2e+15
24 7 1.1e+15
25 7 8e+14
26 7 1.5e+15
27 7 1.3e+15
28 7 6e+14
29 7 1e+15
30 7 9e+14
31 7 1e+15
32 7 1e+15
33 7 1.1e+15
34 7 7e+14
35 7 1e+15
36 7 7e+14
37 7 8e+14
38 7 1.2e+15
39 7 9e+14
40 7 1e+15
41 7 1e+15
42 7 1e+15
43 7 1.3e+15
44 7 1.3e+15
45 7 1.1e+15
46 7 1.4e+15
47 7 2.1e+15
48 7 1.4e+15
49 7 1.7e+15
50 7 1.8e+15
51 7 2.4e+15
52 7 1.7e+15
53 7 3.5e+15
54 7 2.2e+15
55 7 3.3e+15
56 7 1.4e+15
57 7 7e+14
58 7 1.1e+15
59 7 3e+14
60 7 6e+14
61 7 1.1e+15
62 7 8e+14
63 7 1.2e+15
64 7 1e+15
65 7 1.6e+15
66 7 4e+14
67 7 8e+14
68 7 1e+15
69 7 5e+14
70 7 1e+15
71 7 9e+14
72 7 1.1e+15
73 7 9e+14
74 7 1.5e+15
75 7 1e+15
76 7 6e+14
77 7 7e+14
78 7 7e+14
79 7 8e+14
80 7 7e+14
81 7 1e+15
82 7 1.2e+15
83 7 1.6e+15
84 7 1.1e+15
85 7 9e+14
86 7 1.7e+15
87 7 1.5e+15
88 7 1.1e+15
89 7 1.3e+15
90 7 1.3e+15
91 7 1.2e+15
92 7 1.3e+15
93 7 1e+15
94 7 1.2e+15
95 7 1.4e+15
96 7 8e+14
97 7 1.1e+15
98 7 1.7e+15
99 7 7e+14
100 7 3e+14
1 8 0
2 8 6e+14
3 8 1.9e+15
4 8 1.9e+15
5 8 1.1e+15
6 8 1.2e+15
7 8 1.1e+15
8 8 1.1e+15
9 8 1.6e+15
10 8 9e+14
11 8 1.2e+15
12 8 1.2e+15
13 8 1e+15
14 8 1.9e+15
15 8 9e+14
16 8 4e+14
17 8 1.6e+15
18 8 1.2e+15
19 8 1.1e+15
20 8 1e+15
21 8 1.4e+15
22 8 1.6e+15
23 8 1.2e+15
24 8 1.2e+15
25 8 1e+15
26 8 1.4e+15
27 8 1.5e+15
28 8 9e+14
29 8 7e+14
30 8 1e+15
31 8 1.1e+15
32 8 1e+15
33 8 1.1e+15
34 8 1.2e+15
35 8 6e+14
36 8 1.2e+15
37 8 1e+15
38 8 1.1e+15
39 8 8e+14
40 8 1.2e+15
41 8 1.6e+15
42 8 1.5e+15
43 8 3e+15
44 8 1.5e+15
45 8 3.2e+15
46 8 2.4e+15
47 8 2.4e+15
48 8 2e+15
49 8 1.6e+15
50 8 1.3e+15
51 8 1.8e+15
52 8 2e+15
53 8 1.4e+15
54 8 2.3e+15
55 8 1.3e+15
56 8 2.4e+15
57 8 3.2e+15
58 8 2.5e+15
59 8 2.3e+15
60 8 2.7e+15
61 8 1.5e+15
62 8 6e+14
63 8 6e+14
64 8 1e+15
65 8 8e+14
66 8 1.1e+15
67 8 1.2e+15
68 8 1.1e+15
69 8 1e+15
70 8 1.1e+15
71 8 1.4e+15
72 8 1.1e+15
73 8 6e+14
74 8 1e+15
75 8 1.1e+15
76 8 1.6e+15
77 8 1.9e+15
78 8 1.4e+15
79 8 1.8e+15
80 8 1.1e+15
81 8 1.3e+15
82 8 1.8e+15
83 8 1.3e+15
84 8 1.4e+15
85 8 1.3e+15
86 8 1.6e+15
87 8 1.5e+15
88 8 1e+15
89 8 1.5e+15
90 8 1.6e+15
91 8 1.3e+15
92 8 1.7e+15
93 8 2.1e+15
94 8 9e+14
95 8 1.7e+15
96 8 6e+14
97 8 1.4e+15
98 8 1.3e+15
99 8 5e+14
100 8 1e+14
1 9 3e+14
2 9 7e+14
3 9 1.4e+15
4 9 8e+14
5 9 7e+14
6 9 5e+14
7 9 2.3e+15
8 9 2.4e+15
9 9 9e+14
10 9 1.6e+15
11 9 1.3e+15
12 9 1.4e+15
13 9 1e+15
14 9 1e+15
15 9 1.8e+15
16 9 7e+14
17 9 7e+14
18 9 1.3e+15
19 9 9e+14
20 9 1.1e+15
21 9 1.3e+15
22 9 1.3e+15
23 9 1.6e+15
24 9 7e+14
25 9 1.3e+15
26 9 1.3e+15
27 9 1e+15
28 9 9e+14
29 9 1.3e+15
30 9 6e+14
31 9 1.7e+15
32 9 1e+15
33 9 1.3e+15
34 9 1.3e+15
35 9 1.1e+15
36 9 1.5e+15
37 9 1.3e+15
38 9 1.7e+15
39 9 2.3e+15
40 9 2.1e+15
41 9 1.8e+15
42 9 1.7e+15
43 9 1.5e+15
44 9 1.1e+15
45 9 1e+15
46 9 9e+14
47 9 7e+14
48 9 8e+14
49 9 5e+14
50 9 5e+14
51 9 9e+14
52 9 4e+14
53 9 4e+14
54 9 4e+14
55 9 5e+14
56 9 0
57 9 4e+14
58 9 1.3e+15
59 9 2e+15
60 9 1.7e+15
61 9 1.1e+15
62 9 3.5e+15
63 9 1.5e+15
64 9 1.2e+15
65 9 1.1e+15
66 9 9e+14
67 9 1.6e+15
68 9 1.1e+15
69 9 1.5e+15
70 9 1e+15
71 9 1.1e+15
72 9 1.4e+15
73 9 1.7e+15
74 9 1.2e+15
75 9 1.4e+15
76 9 1.2e+15
77 9 1.3e+15
78 9 1.6e+15
79 9 1.1e+15
80 9 1.3e+15
81 9 1.5e+15
82 9 1.5e+15
83 9 7e+14
84 9 1.7e+15
85 9 1.3e+15
86 9 1.7e+15
87 9 1.6e+15
88 9 1.8e+15
89 9 5e+14
90 9 1.1e+15
91 9 2e+15
92 9 1.6e+15
93 9 1.1e+15
94 9 1e+15
95 9 8e+14
96 9 1.2e+15
97 9 1.1e+15
98 9 2.3e+15
99 9 2e+14
100 9 1e+14
1 10 1e+14
2 10 0
3 10 1.4e+15
4 10 1.1e+15
5 10 1.9e+15
6 10 1.6e+15
7 10 9e+14
8 10 1.1e+15
9 10 1.9e+15
10 10 7e+14
11 10 9e+14
12 10 8e+14
13 10 8e+14
14 10 9e+14
15 10 1.2e+15
16 10 1.2e+15
17 10 1.3e+15
18 10 1e+15
19 10 1.1e+15
20 10 1e+15
21 10 1.2e+15
22 10 1.4e+15
23 10 1.4e+15
24 10 1.1e+15
25 10 1.3e+15
26 10 1.4e+15
27 10 1.5e+15
28 10 1e+15
29 10 1.1e+15
30 10 1.3e+15
31 10 1.1e+15
32 10 1.7e+15
33 10 1.1e+15
34 10 1.2e+15
35 10 2.5e+15
36 10 1.4e+15
37 10 2e+15
38 10 1.6e+15
39 10 1.4e+15
40 10 2e+15
41 10 1e+15
42 10 1.6e+15
43 10 3e+14
44 10 6e+14
45 10 9e+14
46 10 6e+14
47 10 1e+15
48 10 5e+14
49 10 1.2e+15
50 10 9e+14
51 10 6e+14
52 10 1.4e+15
53 10 9e+14
54 10 7e+14
55 10 1.3e+15
56 10 1e+15
57 10 1.3e+15
58 10 9e+14
59 10 4e+14
60 10 1.4e+15
61 10 1.5e+15
62 10 1e+15
63 10 2.2e+15
64 10 2.3e+15
65 10 2.4e+15
66 10 2.6e+15
67 10 2.6e+15
68 10 1.6e+15
69 10 1.2e+15
70 10 1.1e+15
71 10 1.4e+15
72 10 1.4e+15
73 10 1.4e+15
74 10 8e+14
75 10 1.5e+15
76 10 7e+14
77 10 1.6e+15
78 10 1.4e+15
79 10 8e+14
80 10 1.1e+15
81 10 7e+14
82 10 1.2e+15
83 10 6e+14
84 10 1e+15
85 10 8e+14
86 10 1.2e+15
87 10 1.3e+15
88 10 1.3e+15
89 10 1.1e+15
90 10 1.1e+15
91 10 1.3e+15
92 10 1.4e+15
93 10 1.1e+15
94 10 1e+15
95 10 1.5e+15
96 10 6e+14
97 10 1.7e+15
98 10 1.6e+15
99 10 4e+14
100 10 0
1 11 2e+14
2 11 2e+14
3 11 1.3e+15
4 11 1.3e+15
5 11 1.8e+15
6 11 1.6e+15
7 11 8e+14
8 11 1.2e+15
9 11 1e+15
10 11 1.9e+15
11 11 1.1e+15
12 11 6e+14
13 11 9e+14
14 11 7e+14
15 11 2.1e+15
16 11 1.6e+15
17 11 1.4e+15
18 11 1.3e+15
19 11 9e+14
20 11 1.1e+15
21 11 1.4e+15
22 11 1.5e+15
23 11 1.6e+15
24 11 1.1e+15
25 11 1.4e+15
26 11 1.1e+15
27 11 1.9e+15
28 11 9e+14
29 11 5e+14
30 11 1.4e+15
31 11 1.5e+15
32 11 2e+15
33 11 1.5e+15
34 11 1.8e+15
35 11 1.9e+15
36 11 1.1e+15
37 11 2.4e+15
38 11 2.3e+15
39 11 1.3e+15
40 11 7e+14
41 11 8e+14
42 11 1e+15
43 11 8e+14
44 11 1e+15
45 11 1e+15
46 11 7e+14
47 11 1e+15
48 11 5e+14
49 11 1.1e+15
50 11 9e+14
51 11 1.3e+15
52 11 1.1e+15
53 11 1.3e+15
54 11 1e+15
55 11 1e+15
56 11 1.3e+15
57 11 1.1e+15
58 11 1e+15
59 11 9e+14
60 11 1.2e+15
61 11 8e+14
62 11 1.1e+15
63 11 1.2e+15
64 11 2.1e+15
65 11 2.1e+15
66 11 1.8e+15
67 11 1.4e+15
68 11 1.3e+15
69 11 2.6e+15
70 11 1.5e+15
71 11 2.1e+15
72 11 1e+15
73 11 1.2e+15
74 11 1.4e+15
75 11 1.4e+15
76 11 1.7e+15
77 11 1.8e+15
78 11 1.2e+15
79 11 1e+15
80 11 1.8e+15
81 11 1.1e+15
82 11 1e+15
83 11 1.5e+15
84 11 1.1e+15
85 11 1.1e+15
86 11 1.2e+15
87 11 1.2e+15
88 11 1.2e+15
89 11 1.5e+15
90 11 1.3e+15
91 11 1.6e+15
92 11 1.4e+15
93 11 6e+14
94 11 1.4e+15
95 11 8e+14
96 11 1.2e+15
97 11 1.6e+15
98 11 1.5e+15
99 11 1e+14
100 11 1e+14
1 12 1e+14
2 12 4e+14
3 12 1.1e+15
4 12 1.4e+15
5 12 5e+14
6 12 6e+14
7 12 1e+15
8 12 7e+14
9 12 6e+14
10 12 6e+14
11 12 1.4e+15
12 12 1.2e+15
13 12 1.2e+15
14 12 1e+15
15 12 1.2e+15
16 12 1.5e+15
17 12 1.4e+15
18 12 1.9e+15
19 12 1.4e+15
20 12 1.4e+15
21 12 2.1e+15
22 12 1.6e+15
23 12 1.3e+15
24 12 1e+15
25 12 1.2e+15
26 12 1.4e+15
27 12 1.5e+15
28 12 1.7e+15
29 12 8e+14
30 12 2.4e+15
31 12 3e+15
32 12 1.4e+15
33 12 1.4e+15
34 12 2.5e+15
35 12 2.2e+15
36 12 2.1e+15
37 12 1.1e+15
38 12 7e+14
39 12 1e+15
40 12 1.3e+15
41 12 1.3e+15
42 12 9e+14
43 12 1e+15
44 12 1.2e+15
45 12 1e+15
46 12 1e+15
47 12 4e+14
48 12 1.1e+15
49 12 9e+14
50 12 1e+15
51 12 9e+14
52 12 9e+14
53 12 8e+14
54 12 1.1e+15
55 12 1.1e+15
56 12 1.3e+15
57 12 1e+15
58 12 1.1e+15
59 12 7e+14
60 12 1.3e+15
61 12 7e+14
62 12 1.2e+15
63 12 9e+14
64 12 1.2e+15
65 12 1.6e+15
66 12 1.8e+15
67 12 1.5e+15
68 12 9e+14
69 12 1.4e+15
70 12 2.1e+15
71 12 2.2e+15
72 12 2e+15
73 12 2.1e+15
74 12 1.3e+15
75 12 1.7e+15
76 12 1.3e+15
77 12 1.7e+15
78 12 1.2e+15
79 12 1.3e+15
80 12 1.1e+15
81 12 1.3e+15
82 12 1.4e+15
83 12 1e+15
84 12 1.1e+15
85 12 1.2e+15
86 12 9e+14
87 12 1.1e+15
88 12 1.4e+15
89 12 1.1e+15
90 12 1.1e+15
91 12 1.4e+15
92 12 1e+15
93 12 1e+15
94 12 1e+15
95 12 1.1e+15
96 12 1.2e+15
97 12 1.3e+15
98 12 1.1e+15
99 12 1e+14
100 12 1e+14
1 13 0
2 13 3e+14
3 13 8e+14
4 13 2.1e+15
5 13 1.3e+15
6 13 1e+15
7 13 1.7e+15
8 13 1.8e+15
9 13 1.4e+15
10 13 8e+14
11 13 1e+15
12 13 1.4e+15
13 13 1.6e+15
14 13 1.2e+15
15 13 9e+14
16 13 1.5e+15
17 13 1.5e+15
18 13 1.1e+15
19 13 1.2e+15
20 13 1.1e+15
21 13 1.2e+15
22 13 1.2e+15
23 13 1.1e+15
24 13 1.5e+15
25 13 1.4e+15
26 13 1.5e+15
27 13 1.2e+15
28 13 1.4e+15
29 13 2.6e+15
30 13 1.7e+15
31 13 1.1e+15
32 13 1.8e+15
33 13 2.8e+15
34 13 1.9e+15
35 13 8e+14
36 13 1.3e+15
37 13 1.2e+15
38 13 1.2e+15
39 13 1.4e+15
40 13 9e+14
41 13 8e+14
42 13 1e+15
43 13 1.2e+15
44 13 7e+14
45 13 8e+14
46 13 9e+14
47 13 7e+14
48 13 5e+14
49 13 9e+14
50 13 7e+14
51 13 8e+14
52 13 5e+14
53 13 6e+14
54 13 7e+14
55 13 9e+14
56 13 9e+14
57 13 7e+14
58 13 6e+14
59 13 1.1e+15
60 13 1e+15
61 13 9e+14
62 13 1.2e+15
63 13 6e+14
64 13 1.2e+15
65 13 1.4e+15
66 13 1.5e+15
67 13 1.8e+15
68 13 2e+15
69 13 1.1e+15
70 13 1.1e+15
71 13 1.3e+15
72 13 2.1e+15
73 13 1.2e+15
74 13 6e+14
75 13 7e+14
76 13 1.5e+15
77 13 1.5e+15
78 13 1.1e+15
79 13 1.6e+15
80 13 1.1e+15
81 13 8e+14
82 13 1.1e+15
83 13 1.4e+15
84 13 1.4e+15
85 13 1e+15
86 13 7e+14
87 13 1.8e+15
88 13 1.2e+15
89 13 1e+15
90 13 1.7e+15
91 13 1.5e+15
92 13 1.1e+15
93 13 1.5e+15
94 13 1.2e+15
95 13 1.6e+15
96 13 9e+14
97 13 1.3e+15
98 13 1.6e+15
99 13 2e+14
100 13 0
1 14 0
2 14 2e+14
3 14 8e+14
4 14 2.7e+15
5 14 1.1e+15
6 14 1.9e+15
7 14 1.4e+15
8 14 1.9e+15
9 14 9e+14
10 14 1.4e+15
11 14 1.1e+15
12 14 1.2e+15
13 14 1.2e+15
14 14 1.6e+15
15 14 1.6e+15
16 14 1.3e+15
17 14 1.1e+15
18 14 1.1e+15
19 14 1.5e+15
20 14 1.8e+15
21 14 1e+15
22 14 1.4e+15
23 14 1.5e+15
24 14 1.4e+15
25 14 1.6e+15
26 14 1.7e+15
27 14 2.1e+15
28 14 2.8e+15
29 14 1.3e+15
30 14 1.5e+15
31 14 1.7e+15
32 14 2.5e+15
33 14 1.3e+15
34 14 1e+15
35 14 9e+14
36 14 1.2e+15
37 14 1e+15
38 14 9e+14
39 14 1.1e+15
40 14 9e+14
41 14 7e+14
42 14 1e+15
43 14 5e+14
44 14 7e+14
45 14 5e+14
46 14 1.2e+15
47 14 5e+14
48 14 7e+14
49 14 5e+14
50 14 8e+14
51 14 1.1e+15
52 14 7e+14
53 14 4e+14
54 14 1e+15
55 14 6e+14
56 14 9e+14
57 14 6e+14
58 14 7e+14
59 14 6e+14
60 14 7e+14
61 14 8e+14
62 14 1.2e+15
63 14 9e+14
64 14 9e+14
65 14 8e+14
66 14 1.2e+15
67 14 1.2e+15
68 14 1.3e+15
69 14 2.3e+15
70 14 2.8e+15
71 14 2.9e+15
72 14 1.7e+15
73 14 2e+15
74 14 3.2e+15
75 14 1.1e+15
76 14 9e+14
77 14 1.4e+15
78 14 1.2e+15
79 14 1.5e+15
80 14 1.4e+15
81 14 1.5e+15
82 14 1.9e+15
83 14 1.2e+15
84 14 1.3e+15
85 14 1.1e+15
86 14 1.4e+15
87 14 1.3e+15
88 14 1e+15
89 14 1.3e+15
90 14 1.5e+15
91 14 7e+14
92 14 1.2e+15
93 14 1.2e+15
94 14 1.2e+15
95 14 1e+15
96 14 1.6e+15
97 14 1.6e+15
98 14 1.5e+15
99 14 1e+14
100 14 1e+14
1 15 0
2 15 1e+14
3 15 1.1e+15
4 15 1e+15
5 15 9e+14
6 15 1.3e+15
7 15 1e+15
8 15 1e+15
9 15 1.1e+15
10 15 1.7e+15
11 15 2.1e+15
12 15 1.7e+15
13 15 8e+14
14 15 1.2e+15
15 15 1.2e+15
16 15 1.2e+15
17 15 1e+15
18 15 1.4e+15
19 15 1.4e+15
20 15 1.5e+15
21 15 1.5e+15
22 15 1.7e+15
23 15 2e+15
24 15 1e+15
25 15 2.4e+15
26 15 1.8e+15
27 15 1.5e+15
28 15 2.2e+15
29 15 1.6e+15
30 15 1.6e+15
31 15 1.3e+15
32 15 1.1e+15
33 15 1.6e+15
34 15 1.9e+15
35 15 7e+14
36 15 7e+14
37 15 9e+14
38 15 8e+14
39 15 6e+14
40 15 6e+14
41 15 6e+14
42 15 8e+14
43 15 6e+14
44 15 4e+14
45 15 6e+14
46 15 6e+14
47 15 2e+14
48 15 4e+14
49 15 4e+14
50 15 7e+14
51 15 5e+14
52 15 4e+14
53 15 2e+14
54 15 5e+14
55 15 6e+14
56 15 4e+14
57 15 6e+14
58 15 4e+14
59 15 5e+14
60 15 6e+14
61 15 8e+14
62 15 1.1e+15
63 15 5e+14
64 15 7e+14
65 15 1.1e+15
66 15 8e+14
67 15 7e+14
68 15 1.1e+15
69 15 1.2e+15
70 15 1.2e+15
71 15 8e+14
72 15 2e+15
73 15 1e+15
74 15 2.1e+15
75 15 4.2e+15
76 15 2.2e+15
77 15 1.2e+15
78 15 1.6e+15
79 15 2.1e+15
80 15 1.3e+15
81 15 1.5e+15
82 15 1.6e+15
83 15 1.5e+15
84 15 1e+15
85 15 1.3e+15
86 15 1.3e+15
87 15 1.5e+15
88 15 1.4e+15
89 15 1.9e+15
90 15 1.4e+15
91 15 1.5e+15
92 15 1e+15
93 15 5e+14
94 15 1.7e+15
95 15 1.5e+15
96 15 1e+15
97 15 1.8e+15
98 15 1e+15
99 15 0
100 15 0
1 16 0
2 16 1e+14
3 16 1.5e+15
4 16 9e+14
5 16 7e+14
6 16 8e+14
7 16 1.1e+15
8 16 1e+15
9 16 6e+14
10 16 7e+14
11 16 1.2e+15
12 16 9e+14
13 16 1e+15
14 16 1.7e+15
15 16 1.8e+15
16 16 9e+14
17 16 1.1e+15
18 16 1.7e+15
19 16 1e+15
20 16 1.2e+15
21 16 1.5e+15
22 16 1.6e+15
23 16 1.7e+15
24 16 1.3e+15
25 16 2e+15
26 16 1.9e+15
27 16 1.7e+15
28 16 2e+15
29 16 2.2e+15
30 16 7e+14
31 16 1.8e+15
32 16 1e+15
33 16 1.3e+15
34 16 1.1e+15
35 16 8e+14
36 16 6e+14
37 16 5e+14
38 16 8e+14
39 16 2e+14
40 16 8e+14
41 16 6e+14
42 16 4e+14
43 16 6e+14
44 16 5e+14
45 16 7e+14
46 16 5e+14
47 16 6e+14
48 16 4e+14
49 16 1e+14
50 16 4e+14
51 16 1.1e+15
52 16 0
53 16 9e+14
54 16 4e+14
55 16 5e+14
56 16 5e+14
57 16 5e+14
58 16 7e+14
59 16 4e+14
60 16 5e+14
61 16 8e+14
62 16 7e+14
63 16 3e+14
64 16 5e+14
65 16 6e+14
66 16 1.2e+15
67 16 9e+14
68 16 8e+14
69 16 1e+15
70 16 1.5e+15
71 16 1.3e+15
72 16 1.2e+15
73 16 2.3e+15
74 16 1.7e+15
75 16 1.8e+15
76 16 1.5e+15
77 16 2e+15
78 16 1.6e+15
79 16 1.2e+15
80 16 1.3e+15
81 16 1.7e+15
82 16 1.3e+15
83 16 1.3e+15
84 16 1e+15
85 16 1.7e+15
86 16 7e+14
87 16 1.1e+15
88 16 1.2e+15
89 16 4e+14
90 16 1.4e+15
91 16 1.1e+15
92 16 1.4e+15
93 16 8e+14
94 16 1.1e+15
95 16 4e+14
96 16 1.2e+15
97 16 2.6e+15
98 16 6e+14
99 16 4e+14
100 16 0
1 17 0
2 17 1e+14
3 17 9e+14
4 17 1.2e+15
5 17 1.7e+15
6 17 1e+15
7 17 2.7e+15
8 17 1.5e+15
9 17 8e+14
10 17 1.3e+15
11 17 1.1e+15
12 17 1.3e+15
13 17 1.3e+15
14 17 1.1e+15
15 17 1.2e+15
16 17 1.4e+15
17 17 1.5e+15
18 17 1e+15
19 17 1.1e+15
20 17 1.7e+15
21 17 1.4e+15
22 17 1.3e+15
23 17 2.3e+15
24 17 1.9e+15
25 17 2.6e+15
26 17 1.8e+15
27 17 2.5e+15
28 17 1.4e+15
29 17 1.6e+15
30 17 1.3e+15
31 17 7e+14
32 17 1.5e+15
33 17 1.1e+15
34 17 8e+14
35 17 6e+14
36 17 7e+14
37 17 5e+14
38 17 7e+14
39 17 8e+14
40 17 4e+14
41 17 4e+14
42 17 7e+14
43 17 4e+14
44 17 4e+14
45 17 2e+14
46 17 4e+14
47 17 2e+14
48 17 2e+14
49 17 3e+14
50 17 3e+14
51 17 6e+14
52 17 1e+14
53 17 3e+14
54 17 3e+14
55 17 5e+14
56 17 5e+14
57 17 6e+14
58 17 1e+14
59 17 5e+14
60 17 3e+14
61 17 2e+14
62 17 6e+14
63 17 2e+14
64 17 4e+14
65 17 3e+14
66 17 7e+14
67 17 5e+14
68 17 1e+15
69 17 3e+14
70 17 1.4e+15
71 17 1.8e+15
72 17 1.1e+15
73 17 1.9e+15
74 17 1.9e+15
75 17 2e+15
76 17 1.5e+15
77 17 1.8e+15
78 17 2.4e+15
79 17 1.5e+15
80 17 2.2e+15
81 17 1.3e+15
82 17 1e+15
83 17 1.2e+15
84 17 1.4e+15
85 17 5e+14
86 17 1.6e+15
87 17 1.4e+15
88 17 1.1e+15
89 17 1.2e+15
90 17 1.6e+15
91 17 1.5e+15
92 17 1.7e+15
93 17 1.2e+15
94 17 1.3e+15
95 17 7e+14
96 17 1.8e+15
97 17 1.3e+15
98 17 5e+14
99 17 0
100 17 1e+14
1 18 0
2 18 2e+14
3 18 1e+15
4 18 1.6e+15
5 18 1.3e+15
6 18 1.6e+15
7 18 1.6e+15
8 18 1.4e+15
9 18 1.9e+15
10 18 1.9e+15
11 18 8e+14
12 18 1.7e+15
13 18 1.5e+15
14 18 8e+14
15 18 1.5e+15
16 18 1.2e+15
17 18 1.5e+15
18 18 1.6e+15
19 18 1.6e+15
20 18 1.2e+15
21 18 1.5e+15
22 18 2e+15
23 18 2.5e+15
24 18 2.2e+15
25 18 2.4e+15
26 18 1.1e+15
27 18 1.2e+15
28 18 1.2e+15
29 18 1.5e+15
30 18 7e+14
31 18 1.1e+15
32 18 3e+14
33 18 8e+14
34 18 9e+14
35 18 6e+14
36 18 5e+14
37 18 3e+14
38 18 5e+14
39 18 4e+14
40 18 2e+14
41 18 2e+14
42 18 7e+14
43 18 3e+14
44 18 5e+14
45 18 4e+14
46 18 5e+14
47 18 1e+14
48 18 2e+14
49 18 2e+14
50 18 3e+14
51 18 4e+14
52 18 3e+14
53 18 2e+14
54 18 5e+14
55 18 8e+14
56 18 0
57 18 4e+14
58 18 4e+14
59 18 6e+14
60 18 6e+14
61 18 3e+14
62 18 4e+14
63 18 3e+14
64 18 3e+14
65 18 5e+14
66 18 5e+14
67 18 5e+14
68 18 6e+14
69 18 6e+14
70 18 7e+14
71 18 9e+14
72 18 1.2e+15
73 18 1.4e+15
74 18 1.3e+15
75 18 2.2e+15
76 18 2.6e+15
77 18 1.8e+15
78 18 1.8e+15
79 18 2e+15
80 18 1.1e+15
81 18 1.6e+15
82 18 1.1e+15
83 18 1.8e+15
84 18 9e+14
85 18 1.1e+15
86 18 1.9e+15
87 18 1.9e+15
88 18 1e+15
89 18 1.2e+15
90 18 1.5e+15
91 18 9e+14
92 18 1.5e+15
93 18 1.4e+15
94 18 1e+15
95 18 1.8e+15
96 18 1.2e+15
97 18 1.4e+15
98 18 6e+14
99 18 0
100 18 1e+14
1 19 2e+14
2 19 1e+14
3 19 1.2e+15
4 19 8e+14
5 19 5e+14
6 19 1.1e+15
7 19 1e+15
8 19 6e+14
9 19 1e+15
10 19 1e+15
11 19 7e+14
12 19 9e+14
13 19 1.2e+15
14 19 1.8e+15
15 19 1e+15
16 19 1.3e+15
17 19 1.4e+15
18 19 1.1e+15
19 19 2.1e+15
20 19 1e+15
21 19 3.5e+15
22 19 1e+15
23 19 2.6e+15
24 19 1.6e+15
25 19 1.2e+15
26 19 1.4e+15
27 19 1.3e+15
28 19 8e+14
29 19 9e+14
30 19 9e+14
31 19 7e+14
32 19 8e+14
33 19 3e+14
34 19 3e+14
35 19 8e+14
36 19 3e+14
37 19 6e+14
38 19 3e+14
39 19 5e+14
40 19 0
41 19 1e+14
42 19 3e+14
43 19 0
44 19 3e+14
45 19 3e+14
46 19 4e+14
47 19 6e+14
48 19 4e+14
49 19 3e+14
50 19 4e+14
51 19 6e+14
52 19 3e+14
53 19 5e+14
54 19 1e+14
55 19 3e+14
56 19 3e+14
57 19 6e+14
58 19 2e+14
59 19 0
60 19 4e+14
61 19 5e+14
62 19 0
63 19 4e+14
64 19 6e+14
65 19 5e+14
66 19 5e+14
67 19 6e+14
68 19 5e+14
69 19 4e+14
70 19 6e+14
71 19 3e+14
72 19 6e+14
73 19 9e+14
74 19 1.7e+15
75 19 1.3e+15
76 19 1.6e+15
77 19 2.3e+15
78 19 1.7e+15
79 19 2.1e+15
80 19 2.3e+15
81 19 2e+15
82 19 1.5e+15
83 19 1.5e+15
84 19 1e+15
85 19 2.5e+15
86 19 1.3e+15
87 19 7e+14
88 19 1.5e+15
89 19 8e+14
90 19 2e+15
91 19 1e+15
92 19 1e+15
93 19 1.2e+15
94 19 6e+14
95 19 6e+14
96 19 8e+14
97 19 2.3e+15
98 19 7e+14
99 19 1e+14
100 19 1e+14
1 20 0
2 20 1e+14
3 20 7e+14
4 20 1.8e+15
5 20 1.8e+15
6 20 8e+14
7 20 1.1e+15
8 20 1.9e+15
9 20 1e+15
10 20 1.6e+15
11 20 1.1e+15
12 20 1.8e+15
13 20 1.2e+15
14 20 1.2e+15
15 20 1.9e+15
16 20 1e+15
17 20 1.3e+15
18 20 1.7e+15
19 20 1.6e+15
20 20 1.8e+15
21 20 1.3e+15
22 20 1.3e+15
23 20 2.3e+15
24 20 1.9e+15
25 20 1.1e+15
26 20 1e+15
27 20 8e+14
28 20 6e+14
29 20 1e+15
30 20 6e+14
31 20 5e+14
32 20 6e+14
33 20 6e+14
34 20 5e+14
35 20 4e+14
36 20 0
37 20 5e+14
38 20 2e+14
39 20 5e+14
40 20 6e+14
41 20 3e+14
42 20 5e+14
43 20 1e+14
44 20 4e+14
45 20 1e+14
46 20 2e+14
47 20 1e+14
48 20 4e+14
49 20 2e+14
50 20 1e+14
51 20 3e+14
52 20 2e+14
53 20 4e+14
54 20 1e+14
55 20 3e+14
56 20 3e+14
57 20 6e+14
58 20 3e+14
59 20 4e+14
60 20 3e+14
61 20 0
62 20 4e+14
63 20 2e+14
64 20 0
65 20 6e+14
66 20 2e+14
67 20 3e+14
68 20 6e+14
69 20 7e+14
70 20 3e+14
71 20 5e+14
72 20 9e+14
73 20 8e+14
74 20 5e+14
75 20 1.7e+15
76 20 1.2e+15
77 20 2.3e+15
78 20 2.2e+15
79 20 1.4e+15
80 20 1.7e+15
81 20 2.6e+15
82 20 1.3e+15
83 20 1.1e+15
84 20 1.3e+15
85 20 1.3e+15
86 20 1.4e+15
87 20 1.2e+15
88 20 1e+15
89 20 1e+15
90 20 1.4e+15
91 20 1.1e+15
92 20 1.5e+15
93 20 1.5e+15
94 20 8e+14
95 20 1.5e+15
96 20 8e+14
97 20 1.9e+15
98 20 3e+14
99 20 1e+14
100 20 0
1 21 2e+14
2 21 0
3 21 1e+14
4 21 1.6e+15
5 21 1.4e+15
6 21 8e+14
7 21 4e+14
8 21 1.2e+15
9 21 1.2e+15
10 21 1.3e+15
11 21 1.5e+15
12 21 1.1e+15
13 21 7e+14
14 21 1.4e+15
15 21 1.1e+15
16 21 1.2e+15
17 21 1.7e+15
18 21 2e+15
19 21 2.9e+15
20 21 1.9e+15
21 21 2.4e+15
22 21 1.9e+15
23 21 1.7e+15
24 21 1.1e+15
25 21 1.8e+15
26 21 5e+14
27 21 1.2e+15
28 21 5e+14
29 21 8e+14
30 21 4e+14
31 21 5e+14
32 21 6e+14
33 21 2e+14
34 21 3e+14
35 21 4e+14
36 21 4e+14
37 21 3e+14
38 21 6e+14
39 21 2e+14
40 21 2e+14
41 21 5e+14
42 21 6e+14
43 21 3e+14
44 21 6e+14
45 21 4e+14
46 21 2e+14
47 21 2e+14
48 21 2e+14
49 21 4e+14
50 21 5e+14
51 21 4e+14
52 21 2e+14
53 21 7e+14
54 21 2e+14
55 21 5e+14
56 21 2e+14
57 21 3e+14
58 21 2e+14
59 21 5e+14
60 21 4e+14
61 21 2e+14
62 21 3e+14
63 21 3e+14
64 21 3e+14
65 21 4e+14
66 21 1e+14
67 21 4e+14
68 21 3e+14
69 21 1e+14
70 21 2e+14
71 21 8e+14
72 21 6e+14
73 21 5e+14
74 21 8e+14
75 21 1.2e+15
76 21 8e+14
77 21 1.7e+15
78 21 1.4e+15
79 21 2.2e+15
80 21 1.8e+15
81 21 1.2e+15
82 21 3e+15
83 21 1.1e+15
84 21 1.1e+15
85 21 1.4e+15
86 21 1e+15
87 21 1e+15
88 21 1.2e+15
89 21 1.4e+15
90 21 1.3e+15
91 21 1.4e+15
92 21 1.3e+15
93 21 1.1e+15
94 21 1.5e+15
95 21 1.7e+15
96 21 9e+14
97 21 2.6e+15
98 21 5e+14
99 21 0
100 21 1e+14
1 22 0
2 22 1e+14
3 22 4e+14
4 22 2.3e+15
5 22 9e+14
6 22 7e+14
7 22 1.3e+15
8 22 1.3e+15
9 22 9e+14
10 22 1.1e+15
11 22 1.1e+15
12 22 1.4e+15
13 22 1.6e+15
14 22 1.2e+15
15 22 1.4e+15
16 22 1.9e+15
17 22 1.8e+15
18 22 2.4e+15
19 22 1.8e+15
20 22 1.2e+15
21 22 2.2e+15
22 22 1.6e+15
23 22 1.5e+15
24 22 6e+14
25 22 6e+14
26 22 6e+14
27 22 3e+14
28 22 3e+14
29 22 4e+14
30 22 1e+14
31 22 6e+14
32 22 2e+14
33 22 6e+14
34 22 5e+14
35 22 6e+14
36 22 5e+14
37 22 7e+14
38 22 5e+14
39 22 3e+14
40 22 1e+14
41 22 3e+14
42 22 2e+14
43 22 4e+14
44 22 0
45 22 4e+14
46 22 1e+14
47 22 5e+14
48 22 3e+14
49 22 2e+14
50 22 2e+14
51 22 5e+14
52 22 1e+14
53 22 1e+14
54 22 1e+14
55 22 1e+14
56 22 0
57 22 4e+14
58 22 6e+14
59 22 0
60 22 4e+14
61 22 1e+14
62 22 0
63 22 5e+14
64 22 2e+14
65 22 4e+14
66 22 5e+14
67 22 2e+14
68 22 3e+14
69 22 6e+14
70 22 1e+14
71 22 3e+14
72 22 4e+14
73 22 6e+14
74 22 6e+14
75 22 7e+14
76 22 4e+14
77 22 7e+14
78 22 1.9e+15
79 22 6e+14
80 22 2e+15
81 22 2.4e+15
82 22 2.1e+15
83 22 2.1e+15
84 22 9e+14
85 22 1.6e+15
86 22 2.3e+15
87 22 1.1e+15
88 22 1.6e+15
89 22 1.6e+15
90 22 1e+15
91 22 1.6e+15
92 22 9e+14
93 22 1.2e+15
94 22 3e+14
95 22 1.2e+15
96 22 4e+14
97 22 2.5e+15
98 22 3e+14
99 22 0
100 22 0
1 23 0
2 23 0
3 23 2e+14
4 23 2.3e+15
5 23 1.1e+15
6 23 1.4e+15
7 23 6e+14
8 23 1.6e+15
9 23 1.1e+15
10 23 1.8e+15
11 23 1.4e+15
12 23 1.7e+15
13 23 1.6e+15
14 23 1.2e+15
15 23 1.6e+15
16 23 1.3e+15
17 23 2.3e+15
18 23 1.6e+15
19 23 1.4e+15
20 23 3.4e+15
21 23 2.1e+15
22 23 1.4e+15
23 23 8e+14
24 23 1e+15
25 23 6e+14
26 23 1.2e+15
27 23 7e+14
28 23 7e+14
29 23 6e+14
30 23 4e+14
31 23 4e+14
32 23 3e+14
33 23 1e+14
34 23 1e+14
35 23 3e+14
36 23 1e+14
37 23 1e+14
38 23 1e+14
39 23 3e+14
40 23 4e+14
41 23 3e+14
42 23 1e+14
43 23 2e+14
44 23 3e+14
45 23 3e+14
46 23 4e+14
47 23 3e+14
48 23 3e+14
49 23 1e+14
50 23 3e+14
51 23 7e+14
52 23 3e+14
53 23 3e+14
54 23 6e+14
55 23 1e+14
56 23 7e+14
57 23 2e+14
58 23 1e+14
59 23 5e+14
60 23 1e+14
61 23 4e+14
62 23 4e+14
63 23 5e+14
64 23 2e+14
65 23 2e+14
66 23 3e+14
67 23 1e+14
68 23 3e+14
69 23 2e+14
70 23 6e+14
71 23 4e+14
72 23 4e+14
73 23 6e+14
74 23 6e+14
75 23 6e+14
76 23 6e+14
77 23 9e+14
78 23 1.2e+15
79 23 1.4e+15
80 23 2.4e+15
81 23 3.3e+15
82 23 1.8e+15
83 23 3e+15
84 23 1.9e+15
85 23 1.5e+15
86 23 1.4e+15
87 23 1.3e+15
88 23 1.4e+15
89 23 1.4e+15
90 23 9e+14
91 23 1.3e+15
92 23 1.7e+15
93 23 1.2e+15
94 23 6e+14
95 23 1.6e+15
96 23 5e+14
97 23 2.3e+15
98 23 3e+14
99 23 0
100 23 0
1 24 1e+14
2 24 1e+14
3 24 4e+14
4 24 2.3e+15
5 24 8e+14
6 24 5e+14
7 24 9e+14
8 24 1.1e+15
9 24 1.4e+15
10 24 9e+14
11 24 8e+14
12 24 1.5e+15
13 24 1.6e+15
14 24 8e+14
15 24 1e+15
16 24 2.5e+15
17 24 1.9e+15
18 24 2.1e+15
19 24 2.8e+15
20 24 1.6e+15
21 24 1.1e+15
22 24 1.1e+15
23 24 1e+15
24 24 6e+14
25 24 5e+14
26 24 1e+14
27 24 4e+14
28 24 5e+14
29 24 3e+14
30 24 4e+14
31 24 2e+14
32 24 1e+14
33 24 3e+14
34 24 3e+14
35 24 3e+14
36 24 3e+14
37 24 2e+14
38 24 3e+14
39 24 3e+14
40 24 4e+14
41 24 3e+14
42 24 4e+14
43 24 4e+14
44 24 2e+14
45 24 7e+14
46 24 2e+14
47 24 6e+14
48 24 3e+14
49 24 1e+14
50 24 4e+14
51 24 3e+14
52 24 5e+14
53 24 3e+14
54 24 4e+14
55 24 4e+14
56 24 3e+14
57 24 1e+14
58 24 4e+14
59 24 5e+14
60 24 2e+14
61 24 4e+14
62 24 3e+14
63 24 3e+14
64 24 5e+14
65 24 3e+14
66 24 2e+14
67 24 2e+14
68 24 3e+14
69 24 3e+14
70 24 1e+14
71 24 3e+14
72 24 2e+14
73 24 4e+14
74 24 3e+14
75 24 4e+14
76 24 4e+14
77 24 4e+14
78 24 1.1e+15
79 24 8e+14
80 24 1.8e+15
81 24 1.5e+15
82 24 1e+15
83 24 2.2e+15
84 24 2.1e+15
85 24 1e+15
86 24 1.1e+15
87 24 1.4e+15
88 24 1.6e+15
89 24 1.2e+15
90 24 1.4e+15
91 24 1.6e+15
92 24 1.3e+15
93 24 1.1e+15
94 24 1.2e+15
95 24 1e+15
96 24 1e+15
97 24 1.8e+15
98 24 1e+14
99 24 0
100 24 0
1 25 0
2 25 1e+14
3 25 4e+14
4 25 2.6e+15
5 25 1.3e+15
6 25 1.1e+15
7 25 9e+14
8 25 1.2e+15
9 25 1.3e+15
10 25 1.1e+15
11 25 1.1e+15
12 25 1e+15
13 25 1.3e+15
14 25 1.7e+15
15 25 1e+15
16 25 2.4e+15
17 25 2.2e+15
18 25 1.6e+15
19 25 1.9e+15
20 25 1.2e+15
21 25 1.2e+15
22 25 8e+14
23 25 7e+14
24 25 6e+14
25 25 5e+14
26 25 3e+14
27 25 5e+14
28 25 1e+14
29 25 4e+14
30 25 2e+14
31 25 3e+14
32 25 7e+14
33 25 3e+14
34 25 1e+14
35 25 2e+14
36 25 0
37 25 6e+14
38 25 7e+14
39 25 7e+14
40 25 2e+14
41 25 1e+14
42 25 2e+14
43 25 4e+14
44 25 4e+14
45 25 6e+14
46 25 1e+14