title="Electric Field"
variables = "x","y","Ex","Ey","E"
zone i=101,j=101,f=point
1 1 -0 -0 0
2 1 -0 171.56 171.56
3 1 -0 343.202 343.202
4 1 -0 514.653 514.653
5 1 -0 686.273 686.273
6 1 -0 857.826 857.826
7 1 -0 1029.42 1029.42
8 1 -0 1200.89 1200.89
9 1 -0 1372.34 1372.34
10 1 -0 1543.52 1543.52
11 1 -0 1714.85 1714.85
12 1 -0 1885.96 1885.96
13 1 -0 2056.71 2056.71
14 1 -0 2227.28 2227.28
15 1 -0 2397.72 2397.72
16 1 -0 2567.91 2567.91
17 1 -0 2737.46 2737.46
18 1 -0 2906.1 2906.1
19 1 -0 3074.04 3074.04
20 1 -0 3241.45 3241.45
21 1 -0 3407.76 3407.76
22 1 -0 3572.72 3572.72
23 1 -0 3736.1 3736.1
24 1 -0 3898.37 3898.37
25 1 -0 4059.28 4059.28
26 1 -0 4217.35 4217.35
27 1 -0 4373.54 4373.54
28 1 -0 4527.39 4527.39
29 1 -0 4678.33 4678.33
30 1 -0 4826.23 4826.23
31 1 -0 4970.72 4970.72
32 1 -0 5111.12 5111.12
33 1 -0 5248.07 5248.07
34 1 -0 5380.72 5380.72
35 1 -0 5508.16 5508.16
36 1 -0 5630.06 5630.06
37 1 -0 5746.12 5746.12
38 1 -0 5856.4 5856.4
39 1 -0 5960.45 5960.45
40 1 -0 6057.85 6057.85
41 1 -0 6148.42 6148.42
42 1 -0 6231.61 6231.61
43 1 -0 6307.1 6307.1
44 1 -0 6374.17 6374.17
45 1 -0 6432.39 6432.39
46 1 -0 6482.64 6482.64
47 1 -0 6523.98 6523.98
48 1 -0 6556.34 6556.34
49 1 -0 6579.83 6579.83
50 1 -0 6594.81 6594.81
51 1 -0 6599.45 6599.45
52 1 -0 6594.32 6594.32
53 1 -0 6579.03 6579.03
54 1 -0 6554.43 6554.43
55 1 -0 6522.25 6522.25
56 1 -0 6480.74 6480.74
57 1 -0 6430.14 6430.14
58 1 -0 6371.11 6371.11
59 1 -0 6304.47 6304.47
60 1 -0 6229.4 6229.4
61 1 -0 6146.31 6146.31
62 1 -0 6055.59 6055.59
63 1 -0 5957.75 5957.75
64 1 -0 5853.14 5853.14
65 1 -0 5742.98 5742.98
66 1 -0 5626.99 5626.99
67 1 -0 5505.14 5505.14
68 1 -0 5378.03 5378.03
69 1 -0 5246.06 5246.06
70 1 -0 5109.99 5109.99
71 1 -0 4969.5 4969.5
72 1 -0 4825.16 4825.16
73 1 -0 4677.41 4677.41
74 1 -0 4526.29 4526.29
75 1 -0 4372.57 4372.57
76 1 -0 4216.18 4216.18
77 1 -0 4057.77 4057.77
78 1 -0 3897.33 3897.33
79 1 -0 3734.95 3734.95
80 1 -0 3571.45 3571.45
81 1 -0 3406.55 3406.55
82 1 -0 3240.23 3240.23
83 1 -0 3072.92 3072.92
84 1 -0 2904.9 2904.9
85 1 -0 2735.94 2735.94
86 1 -0 2566.28 2566.28
87 1 -0 2396.25 2396.25
88 1 -0 2225.81 2225.81
89 1 -0 2055.05 2055.05
90 1 -0 1884.14 1884.14
91 1 -0 1713.22 1713.22
92 1 -0 1542.2 1542.2
93 1 -0 1371.15 1371.15
94 1 -0 1199.91 1199.91
95 1 -0 1028.7 1028.7
96 1 -0 857.359 857.359
97 1 -0 685.898 685.898
98 1 -0 514.464 514.464
99 1 -0 342.991 342.991
100 1 -0 171.527 171.527
101 1 -0 -0 0
1 2 171.56 -0 171.56
2 2 343.202 343.117 485.301
3 2 343.092 686.134 767.133
4 2 343.071 1029.32 1084.99
5 2 343.173 1372.39 1414.64
6 2 343.143 1715.73 1749.7
7 2 343.062 2058.8 2087.19
8 2 342.928 2401.83 2426.19
9 2 342.632 2744.58 2765.89
10 2 342.509 3087.29 3106.24
11 2 342.436 3429.92 3446.97
12 2 341.855 3772.11 3787.57
13 2 341.325 4113.62 4127.75
14 2 341.015 4454.84 4467.88
15 2 340.627 4796.06 4808.14
16 2 339.738 5136.33 5147.56
17 2 338.194 5475.35 5485.78
18 2 336.582 5812.82 5822.56
19 2 335.347 6149.24 6158.37
20 2 333.721 6484.14 6492.72
21 2 331.275 6816.97 6825.01
22 2 328.335 7146.84 7154.38
23 2 325.644 7473.76 7480.85
24 2 323.181 7798.84 7805.53
25 2 318.98 8120.4 8126.66
26 2 314.26 8438.33 8444.18
27 2 310.04 8751.52 8757.01
28 2 304.788 9059.27 9064.4
29 2 298.842 9360.98 9365.75
30 2 292.388 9656.99 9661.42
31 2 284.887 9945.57 9949.65
32 2 277.353 10226.2 10230
33 2 269.604 10501 10504.5
34 2 260.089 10766.7 10769.9
35 2 249.34 11021.8 11024.6
36 2 237.963 11265.9 11268.4
37 2 226.339 11498.5 11500.7
38 2 214.325 11718.8 11720.8
39 2 201.454 11928.1 11929.8
40 2 187.975 12123.4 12124.8
41 2 173.756 12304.7 12305.9
42 2 158.679 12471.1 12472.1
43 2 142.556 12622.2 12623
44 2 125.286 12756.8 12757.4
45 2 108.469 12874 12874.5
46 2 91.5959 12974.5 12974.8
47 2 73.7038 13057.8 13058
48 2 55.8487 13123.2 13123.3
49 2 38.4676 13170.5 13170.6
50 2 19.6174 13199.3 13199.3
51 2 -0.484011 13208.9 13208.9
52 2 -20.4183 13199.2 13199.2
53 2 -39.8978 13170.1 13170.2
54 2 -56.7848 13121.9 13122
55 2 -73.6886 13055.7 13055.9
56 2 -92.1065 12971.1 12971.4
57 2 -109.627 12869.7 12870.2
58 2 -125.672 12751.9 12752.5
59 2 -141.707 12617.6 12618.4
60 2 -158.152 12467.1 12468.1
61 2 -173.816 12300.5 12301.7
62 2 -188.563 12118.6 12120
63 2 -202.447 11922.5 11924.3
64 2 -214.773 11713 11715
65 2 -226.153 11491.8 11494.1
66 2 -237.84 11259.6 11262.1
67 2 -248.957 11015.6 11018.4
68 2 -259.075 10761.6 10764.8
69 2 -268.042 10497.1 10500.6
70 2 -276.56 10224.8 10228.5
71 2 -284.828 9943.37 9947.45
72 2 -292.096 9654.07 9658.48
73 2 -298.868 9358.31 9363.08
74 2 -304.836 9055.74 9060.87
75 2 -310.114 8747.78 8753.27
76 2 -314.801 8434.94 8440.81
77 2 -318.853 8118.22 8124.48
78 2 -322.824 7796.93 7803.61
79 2 -325.879 7472.59 7479.69
80 2 -328.399 7145.44 7152.98
81 2 -331.214 6814.86 6822.91
82 2 -333.632 6481.92 6490.5
83 2 -335.336 6146.82 6155.96
84 2 -336.974 5810.89 5820.65
85 2 -338.617 5473.01 5483.48
86 2 -339.696 5133.49 5144.72
87 2 -340.471 4793.44 4805.51
88 2 -341.2 4452.57 4465.63
89 2 -341.665 4110.84 4125.01
90 2 -341.833 3768.76 3784.23
91 2 -341.942 3426.7 3443.71
92 2 -342.07 3084.83 3103.74
93 2 -342.291 2742.42 2763.7
94 2 -342.448 2399.96 2424.27
95 2 -342.552 2057.41 2085.73
96 2 -342.801 1714.57 1748.5
97 2 -342.895 1371.64 1413.85
98 2 -342.906 1028.83 1084.47
99 2 -342.937 685.902 766.856
100 2 -342.991 342.97 485.048
101 2 -171.527 -0 171.527
1 3 343.117 -0 343.117
2 3 686.134 343.036 767.107
3 3 686.202 686.16 970.406
4 3 686.251 1029.26 1237.06
5 3 686.407 1372.6 1534.66
6 3 686.419 1715.81 1848.02
7 3 686.104 2058.89 2170.2
8 3 685.779 2401.81 2497.8
9 3 685.464 2744.89 2829.19
10 3 685.332 3087.88 3163.02
11 3 684.814 3430.55 3498.24
12 3 683.7 3772.91 3834.35
13 3 682.735 4114.84 4171.09
14 3 682.441 4456.43 4508.38
15 3 681.49 4797.54 4845.7
16 3 679.29 5137.65 5182.36
17 3 676.485 5476.86 5518.48
18 3 673.891 5815.35 5854.27
19 3 671.321 6152.01 6188.53
20 3 667.732 6487.3 6521.57
21 3 662.698 6821.46 6853.57
22 3 656.795 7152.46 7182.55
23 3 651.997 7480.11 7508.47
24 3 646.634 7805.8 7832.54
25 3 639.494 8128.11 8153.22
26 3 631.119 8447.94 8471.48
27 3 620.944 8762.55 8784.53
28 3 609.464 9071.16 9091.61
29 3 597.718 9373.74 9392.77
30 3 584.592 9669.9 9687.55
31 3 569.215 9958.91 9975.17
32 3 555.437 10240.5 10255.6
33 3 540.515 10515.8 10529.7
34 3 520.746 10782.3 10794.9
35 3 499.183 11038.2 11049.5
36 3 476.739 11283.2 11293.2
37 3 452.895 11517.5 11526.4
38 3 429.613 11739.7 11747.5
39 3 404.561 11950.4 11957.2
40 3 376.609 12146.9 12152.8
41 3 347.709 12328.9 12333.8
42 3 317.457 12495.4 12499.4
43 3 285.731 12646.7 12649.9
44 3 251.871 12783 12785.5
45 3 217.655 12902 12903.8
46 3 183.783 13003 13004.3
47 3 148.75 13086.7 13087.5
48 3 112.715 13153.1 13153.6
49 3 76.1245 13201.2 13201.4
50 3 38.343 13229.2 13229.2
51 3 -0.139044 13239.4 13239.4
52 3 -38.7642 13229.9 13230
53 3 -77.2626 13201.9 13202.1
54 3 -114.458 13154.4 13154.9
55 3 -150.866 13087.2 13088.1
56 3 -185.959 13001.5 13002.8
57 3 -219.204 12899.3 12901.2
58 3 -252.123 12780.9 12783.4
59 3 -284.737 12644 12647.2
60 3 -317.084 12492.1 12496.1
61 3 -348.552 12324 12328.9
62 3 -377.951 12140.6 12146.5
63 3 -405.58 11943.5 11950.4
64 3 -430.708 11733.5 11741.4
65 3 -453.356 11510.2 11519.1
66 3 -476.206 11277.2 11287.3
67 3 -497.998 11033 11044.3
68 3 -518.494 10778.7 10791.2
69 3 -536.823 10513.5 10527.2
70 3 -553.766 10239.1 10254.1
71 3 -570.745 9955.59 9971.93
72 3 -585.064 9665 9682.69
73 3 -598.328 9368.77 9387.86
74 3 -610.532 9066 9086.54
75 3 -620.799 8756.56 8778.53
76 3 -629.555 8443.6 8467.04
77 3 -638.006 8126.24 8151.25
78 3 -645.633 7805.06 7831.72
79 3 -651.492 7479.89 7508.21
80 3 -657.726 7151.7 7181.88
81 3 -663.521 6819.92 6852.12
82 3 -668.046 6486.35 6520.66
83 3 -671.03 6151.04 6187.54
84 3 -673.806 5814.23 5853.15
85 3 -677.4 5475.79 5517.53
86 3 -679.573 5135.86 5180.62
87 3 -680.916 4795.1 4843.21
88 3 -682.6 4454.14 4506.14
89 3 -683.815 4111.89 4168.36
90 3 -684.143 3769.55 3831.13
91 3 -683.93 3427.89 3495.45
92 3 -684.272 3085.59 3160.55
93 3 -684.865 2742.77 2826.98
94 3 -685.017 2400.52 2496.35
95 3 -685.397 2057.67 2168.82
96 3 -685.763 1714.66 1846.71
97 3 -685.737 1371.69 1533.55
98 3 -685.741 1028.87 1236.45
99 3 -685.86 685.849 969.945
100 3 -685.902 343.01 766.888
101 3 -342.97 -0 342.97
1 4 514.596 -0 514.596
2 4 1029.36 343.06 1085.02
3 4 1029.31 686.204 1237.08
4 4 1029.51 1029.59 1456
5 4 1029.73 1372.86 1716.13
6 4 1029.43 1715.92 2001.02
7 4 1029.06 2058.91 2301.76
8 4 1028.93 2402.15 2613.24
9 4 1028.7 2745.42 2931.82
10 4 1028.17 3088.61 3255.25
11 4 1027.46 3431.42 3581.94
12 4 1026.14 3774.11 3911.12
13 4 1024.85 4116.62 4242.28
14 4 1023.72 4458.64 4574.66
15 4 1021.84 4799.31 4906.89
16 4 1019.05 5139.91 5239.95
17 4 1015.9 5480.32 5573.68
18 4 1011.73 5819.95 5907.23
19 4 1007.29 6157.82 6239.66
20 4 1003.17 6494.34 6571.36
21 4 996.438 6829.53 6901.84
22 4 986.988 7162.01 7229.7
23 4 978.986 7492.14 7555.83
24 4 971.176 7819.92 7879.99
25 4 961.115 8143.83 8200.34
26 4 948.708 8463.32 8516.33
27 4 933.261 8778.56 8828.03
28 4 915.97 9088.72 9134.76
29 4 897.583 9393.52 9436.3
30 4 877.562 9691.12 9730.77
31 4 855.487 9981.26 10017.9
32 4 834.213 10265.7 10299.5
33 4 811.428 10540.5 10571.6
34 4 782.528 10808.6 10836.9
35 4 750.18 11066 11091.4
36 4 717.229 11313.5 11336.2
37 4 682.839 11550.5 11570.7
38 4 647.217 11775.8 11793.5
39 4 608.736 11987.2 12002.7
40 4 566.468 12186.3 12199.5
41 4 522.206 12370.4 12381.4
42 4 476.505 12538.7 12547.7
43 4 430.199 12690.5 12697.8
44 4 380.607 12827.7 12833.4
45 4 328.409 12949 12953.2
46 4 276.287 13051.6 13054.6
47 4 223.825 13136 13137.9
48 4 170.313 13202.6 13203.7
49 4 114.543 13251.3 13251.8
50 4 57.8171 13280.1 13280.3
51 4 0.255203 13289.9 13289.9
52 4 -57.9292 13279.3 13279.4
53 4 -115.434 13250.8 13251.3
54 4 -171.401 13203 13204.1
55 4 -226.596 13136.4 13138.3
56 4 -280.009 13052 13055
57 4 -330.147 12948.2 12952.5
58 4 -380.962 12826.8 12832.4
59 4 -430.555 12687.1 12694.4
60 4 -478.179 12533.4 12542.6
61 4 -525.325 12363.4 12374.6
62 4 -569.038 12178.5 12191.8
63 4 -609.529 11980.3 11995.8
64 4 -648.158 11768.3 11786.1
65 4 -682.426 11544.7 11564.8
66 4 -714.949 11309.2 11331.7
67 4 -747.465 11063.3 11088.5
68 4 -778.666 10806.1 10834.1
69 4 -807.677 10539.7 10570.6
70 4 -834.43 10262.9 10296.8
71 4 -858.925 9977.49 10014.4
72 4 -878.913 9685.4 9725.19
73 4 -897.86 9387.15 9430
74 4 -917.048 9083.95 9130.12
75 4 -932.516 8772.74 8822.16
76 4 -945.116 8458.56 8511.2
77 4 -957.395 8139.08 8195.19
78 4 -969.176 7817.36 7877.2
79 4 -979.237 7490.91 7554.65
80 4 -988.373 7160.64 7228.53
81 4 -996.567 6827.89 6900.23
82 4 -1002.51 6493.41 6570.35
83 4 -1007.45 6157.3 6239.18
84 4 -1012.22 5818.78 5906.17
85 4 -1016.99 5479.66 5573.24
86 4 -1020.39 5139.61 5239.93
87 4 -1022.19 4798.49 4906.16
88 4 -1024.41 4456.52 4572.74
89 4 -1026.25 4113.66 4239.74
90 4 -1025.84 3772.25 3909.25
91 4 -1025.91 3430.29 3580.41
92 4 -1027.19 3087.28 3253.68
93 4 -1027.35 2744.4 2930.39
94 4 -1027.54 2401.37 2611.98
95 4 -1028.42 2058.11 2300.75
96 4 -1028.78 1714.96 1999.87
97 4 -1028.68 1371.89 1714.72
98 4 -1028.75 1028.99 1455.04
99 4 -1028.8 686.107 1236.59
100 4 -1028.84 343.091 1084.54
101 4 -514.537 -0 514.537
1 5 686.177 -0 686.177
2 5 1372.34 343.09 1414.58
3 5 1372.73 686.388 1534.77
4 5 1372.91 1029.73 1716.16
5 5 1372.74 1372.78 1941.37
6 5 1372.47 1715.81 2197.2
7 5 1372.34 2059.2 2474.59
8 5 1372.29 2402.66 2766.94
9 5 1371.92 2746.08 3069.71
10 5 1371.33 3089.41 3380.09
11 5 1370.31 3432.44 3695.86
12 5 1368.91 3775.64 4016.14
13 5 1367.27 4118.39 4339.42
14 5 1365.13 4460.42 4664.64
15 5 1362.76 4801.99 4991.61
16 5 1360.29 5144.46 5321.27
17 5 1356.53 5485.1 5650.35
18 5 1351.39 5826.16 5980.84
19 5 1345.71 6166.46 6311.59
20 5 1339.45 6504.64 6641.12
21 5 1330.36 6840.07 6968.24
22 5 1319.4 7173.8 7294.13
23 5 1309.91 7506.86 7620.29
24 5 1298.33 7836.96 7943.77
25 5 1282.89 8162.73 8262.93
26 5 1265.86 8483.5 8577.42
27 5 1246.34 8799.39 8887.22
28 5 1224.42 9110.75 9192.65
29 5 1200.12 9418.1 9494.26
30 5 1172.33 9719.06 9789.51
31 5 1143.79 10012.9 10078.1
32 5 1114.64 10299.9 10360
33 5 1083.4 10576.4 10631.8
34 5 1046.3 10845.6 10895.9
35 5 1004.12 11106.2 11151.5
36 5 961.24 11358 11398.6
37 5 915.136 11597.4 11633.4
38 5 866.326 11825.1 11856.8
39 5 815.124 12039 12066.6
40 5 759.781 12240.9 12264.4
41 5 700.063 12427.3 12447
42 5 637.533 12598.9 12615
43 5 574.781 12753.2 12766.2
44 5 510.433 12892.5 12902.6
45 5 441.556 13016.7 13024.2
46 5 370.756 13121.7 13126.9
47 5 299.707 13207.4 13210.8
48 5 227.978 13274.7 13276.6
49 5 153.674 13323.2 13324.1
50 5 76.9434 13352.3 13352.5
51 5 -0.987495 13360.7 13360.7
52 5 -77.8618 13350 13350.2
53 5 -153.535 13320.1 13321
54 5 -228.844 13269.7 13271.7
55 5 -301.877 13202.5 13205.9
56 5 -374.105 13119.4 13124.7
57 5 -444.431 13015.2 13022.8
58 5 -513.226 12891.3 12901.5
59 5 -578.08 12750.4 12763.5
60 5 -640.797 12593.8 12610.1
61 5 -703.448 12420.5 12440.4
62 5 -761.12 12233.5 12257.1
63 5 -815.875 12033.7 12061.3
64 5 -866.31 11819.4 11851.1
65 5 -912.449 11593.2 11629
66 5 -957.583 11353.3 11393.6
67 5 -1001.04 11104.5 11149.5
68 5 -1042.08 10844.5 10894.5
69 5 -1080.02 10575.3 10630.3
70 5 -1115.97 10296.3 10356.6
71 5 -1148.27 10010.1 10075.7
72 5 -1175.4 9716.54 9787.38
73 5 -1199.77 9415.05 9491.18
74 5 -1224.95 9109.07 9191.06
75 5 -1246.19 8796.64 8884.47
76 5 -1263.22 8479.38 8572.95
77 5 -1279.21 8156.92 8256.62
78 5 -1293.8 7832.06 7938.2
79 5 -1308.2 7504.54 7617.71
80 5 -1320.75 7172.68 7293.27
81 5 -1330.75 6838.62 6966.9
82 5 -1338.63 6502.35 6638.71
83 5 -1345.66 6163.83 6309.01
84 5 -1351.45 5824.48 5979.21
85 5 -1356.57 5484.51 5649.79
86 5 -1360.74 5143.62 5320.57
87 5 -1364.01 4802.77 4992.71
88 5 -1367.44 4460.33 4665.24
89 5 -1368.08 4118.06 4339.37
90 5 -1367.51 3775.99 4015.99
91 5 -1368.9 3432.39 3695.3
92 5 -1370.16 3089.08 3379.31
93 5 -1370.77 2745.83 3068.98
94 5 -1371.31 2401.9 2765.79
95 5 -1371.81 2058.43 2473.66
96 5 -1371.98 1714.97 2196.24
97 5 -1371.71 1371.68 1939.87
98 5 -1371.52 1028.86 1714.54
99 5 -1371.76 685.923 1533.7
100 5 -1372.01 342.783 1414.18
101 5 -686.06 -0 686.06
1 6 857.687 -0 857.687
2 6 1715.75 343.237 1749.75
3 6 1715.95 686.505 1848.18
4 6 1715.91 1029.42 2001.01
5 6 1715.82 1372.52 2197.23
6 6 1715.85 1715.83 2426.56
7 6 1715.91 2059.47 2680.63
8 6 1715.81 2403.03 2952.72
9 6 1715.44 2746.7 3238.38
10 6 1714.53 3090.05 3533.84
11 6 1713.69 3433.65 3837.54
12 6 1712.09 3777.35 4147.25
13 6 1709.63 4120.58 4461.17
14 6 1707.32 4463.97 4779.33
15 6 1705.89 4807.6 5101.28
16 6 1702.16 5150.95 5424.91
17 6 1697.6 5493.72 5750.03
18 6 1693.1 5835.97 6076.61
19 6 1685.77 6176.64 6402.56
20 6 1676.78 6515.6 6727.9
21 6 1665.6 6853.18 7052.68
22 6 1653.78 7188.72 7376.5
23 6 1642.14 7523.75 7700.87
24 6 1627.04 7853.82 8020.58
25 6 1607.66 8182.33 8338.77
26 6 1585.37 8506.33 8652.8
27 6 1560.51 8825.79 8962.68
28 6 1534.68 9139.9 9267.85
29 6 1505.89 9449.74 9568.98
30 6 1472.4 9753.94 9864.44
31 6 1436.29 10051.6 10153.7
32 6 1397.68 10339.5 10433.5
33 6 1357.15 10621 10707.4
34 6 1312.34 10893.3 10972
35 6 1262.57 11158.9 11230.1
36 6 1208.37 11414.1 11477.9
37 6 1149.93 11656.7 11713.3
38 6 1088.85 11889.4 11939.2
39 6 1024.54 12107.8 12151.1
40 6 954.815 12312.4 12349.3
41 6 880.236 12501.5 12532.5
42 6 802.393 12676.7 12702.1
43 6 723.818 12836.1 12856.5
44 6 644.069 12977.3 12993.3
45 6 557.581 13103.3 13115.1
46 6 467.029 13210.2 13218.5
47 6 376.805 13297.1 13302.4
48 6 286.09 13365.6 13368.7
49 6 192.141 13414.2 13415.6
50 6 95.3178 13442.3 13442.7
51 6 -2.02622 13450.7 13450.7
52 6 -98.4996 13440.9 13441.3
53 6 -195.699 13410.6 13412
54 6 -289.039 13359.9 13363
55 6 -376.934 13291.2 13296.6
56 6 -467.3 13205.9 13214.2
57 6 -558.24 13101.2 13113.1
58 6 -645.802 12976.3 12992.3
59 6 -728.078 12833.9 12854.6
60 6 -808.069 12673.4 12699.1
61 6 -885.624 12495.2 12526.6
62 6 -955.86 12305.2 12342.3
63 6 -1023.57 12103.1 12146.3
64 6 -1088.62 11886.6 11936.4
65 6 -1148.55 11654.7 11711.2
66 6 -1203.66 11410.4 11473.7
67 6 -1256.22 11158.7 11229.2
68 6 -1307.9 10895.4 10973.6
69 6 -1355.98 10621.6 10707.8
70 6 -1399.59 10340.3 10434.6
71 6 -1438.63 10052.2 10154.6
72 6 -1473.96 9755.42 9866.14
73 6 -1505.33 9450.06 9569.2
74 6 -1535.45 9139.98 9268.06
75 6 -1562.21 8826.14 8963.33
76 6 -1584.84 8505.32 8651.71
77 6 -1604.71 8179.75 8335.67
78 6 -1621.56 7850.93 8016.64
79 6 -1638.61 7520.64 7697.08
80 6 -1654.29 7187.34 7375.26
81 6 -1666.9 6850.95 7050.82
82 6 -1677.3 6513.8 6726.28
83 6 -1685.32 6174.08 6399.97
84 6 -1691.55 5833.09 6073.4
85 6 -1697.85 5490.89 5747.4
86 6 -1702.12 5148.91 5422.96
87 6 -1705.47 4806.65 5100.25
88 6 -1709.12 4463.7 4779.72
89 6 -1710.59 4121.94 4462.79
90 6 -1711.51 3778.05 4147.64
91 6 -1712.82 3433.75 3837.24
92 6 -1713.75 3089.94 3533.36
93 6 -1714.54 2746.02 3237.32
94 6 -1714.95 2402.29 2951.62
95 6 -1715.35 2058.77 2679.73
96 6 -1715.52 1715.44 2426.06
97 6 -1714.79 1372.15 2196.2
98 6 -1714.51 1028.85 1999.52
99 6 -1714.87 685.649 1846.86
100 6 -1714.76 342.784 1748.69
101 6 -857.32 -0 857.32
1 7 1029.41 -0 1029.41
2 7 2058.84 343.202 2087.25
3 7 2058.91 685.987 2170.18
4 7 2058.92 1029.07 2301.77
5 7 2059.15 1372.32 2474.54
6 7 2059.42 1715.97 2680.63
7 7 2059.54 2059.45 2912.56
8 7 2059.51 2403.29 3165.03
9 7 2058.95 2747 3432.97
10 7 2058.29 3090.83 3713.46
11 7 2057.62 3434.68 4003.85
12 7 2055.83 3779.35 4302.32
13 7 2053.88 4123.75 4606.92
14 7 2052.15 4468.47 4917.17
15 7 2049.73 4813.26 5231.52
16 7 2046.41 5158.22 5549.33
17 7 2041.55 5503.67 5870.12
18 7 2034.31 5846.42 6190.24
19 7 2025.35 6187.94 6510.97
20 7 2015.99 6528.66 6832.83
21 7 2003.48 6868.57 7154.8
22 7 1989.97 7205.36 7475.1
23 7 1975 7542.54 7796.83
24 7 1956.9 7875.81 8115.29
25 7 1935.41 8207.59 8432.7
26 7 1909.32 8534.61 8745.57
27 7 1879.92 8858.43 9055.71
28 7 1848.37 9176.86 9361.16
29 7 1814.16 9489.03 9660.89
30 7 1774.22 9795.76 9955.13
31 7 1729.33 10095.8 10242.8
32 7 1684.03 10387.5 10523.2
33 7 1637.21 10674.9 10799.7
34 7 1584.2 10953.7 11067.6
35 7 1524.97 11223.7 11326.8
36 7 1459.02 11483.3 11575.6
37 7 1390.44 11732.7 11814.8
38 7 1317.44 11969.7 12041.9
39 7 1238.06 12190.6 12253.3
40 7 1153.51 12399.3 12452.9
41 7 1064.4 12593.9 12638.8
42 7 972.058 12773.7 12810.6
43 7 875.348 12937.5 12967.1
44 7 777.65 13080.1 13103.2
45 7 674.497 13208.1 13225.3
46 7 564.534 13316.3 13328.3
47 7 455.133 13405.5 13413.3
48 7 345.136 13475.8 13480.2
49 7 230.35 13524.9 13526.8
50 7 113.453 13552.9 13553.4
51 7 -2.4053 13561.1 13561.1
52 7 -118.028 13550.7 13551.2
53 7 -234.537 13521.7 13523.7
54 7 -348.175 13473.6 13478.1
55 7 -455.894 13404 13411.7
56 7 -564.166 13313.9 13325.8
57 7 -674.057 13204.9 13222.1
58 7 -780.481 13077.4 13100.6
59 7 -880.967 12932.8 12962.7
60 7 -979.49 12770.2 12807.7
61 7 -1071.63 12590.9 12636.4
62 7 -1153.23 12397.7 12451.3
63 7 -1234.43 12190.2 12252.6
64 7 -1314.71 11969.2 12041.2
65 7 -1388.67 11733.7 11815.6
66 7 -1453.57 11484.1 11575.8
67 7 -1516.07 11225.7 11327.6
68 7 -1579.25 10956.8 11070.1
69 7 -1635.14 10679.1 10803.5
70 7 -1685.38 10394.1 10529.8
71 7 -1733.11 10101.3 10248.9
72 7 -1777.5 9799.88 9959.78
73 7 -1815.21 9490.87 9662.9
74 7 -1848.86 9176.23 9360.64
75 7 -1880.85 8859.01 9056.47
76 7 -1909.61 8534.45 8745.48
77 7 -1933.6 8206.64 8431.36
78 7 -1952.9 7875.65 8114.16
79 7 -1971.79 7541.89 7795.39
80 7 -1990.45 7205.86 7475.71
81 7 -2004.29 6867.72 7154.21
82 7 -2015.5 6527.67 6831.75
83 7 -2026.37 6185.63 6509.09
84 7 -2034.64 5842.24 6186.4
85 7 -2040.75 5498.75 5865.23
86 7 -2044.98 5155.66 5546.42
87 7 -2049.22 4811.49 5229.69
88 7 -2052.15 4467.57 4916.35
89 7 -2053.74 4124.01 4607.09
90 7 -2055.7 3779.57 4302.44
91 7 -2057.01 3435.09 4003.89
92 7 -2057.89 3090.7 3713.13
93 7 -2058.42 2746.52 3432.27
94 7 -2058.56 2402.57 3163.86
95 7 -2058.66 2058.98 2911.61
96 7 -2058.6 1715.76 2679.86
97 7 -2058.29 1372.56 2473.96
98 7 -2058.03 1028.96 2300.92
99 7 -2057.83 685.971 2169.15
100 7 -2057.66 343.058 2086.06
101 7 -1028.84 -0 1028.84
1 8 1200.89 -0 1200.89
2 8 2401.74 342.707 2426.06
3 8 2401.81 685.53 2497.73
4 8 2402.24 1028.71 2613.23
5 8 2402.72 1372.25 2766.97
6 8 2402.98 1715.69 2952.61
7 8 2403.23 2059.5 3164.97
8 8 2403.36 2403.17 3398.73
9 8 2402.98 2747.91 3650.39
10 8 2402.21 3092.51 3915.89
11 8 2402.21 3437.3 4193.52
12 8 2401.16 3782.79 4480.52
13 8 2398.75 4128.21 4774.53
14 8 2396.82 4473.72 5075.33
15 8 2395.64 4819.75 5382.29
16 8 2392.58 5165.96 5693.12
17 8 2385.8 5511.79 6005.99
18 8 2377.37 5856.04 6320.21
19 8 2368.01 6199.74 6636.58
20 8 2357.4 6543.32 6955.02
21 8 2342.29 6885.99 7273.46
22 8 2327.76 7226.94 7592.57
23 8 2312.6 7565.95 7911.49
24 8 2292.09 7904.04 8229.67
25 8 2266.45 8237.97 8544.06
26 8 2236.2 8569.38 8856.35
27 8 2202.76 8895.82 9164.49
28 8 2165.28 9217.31 9468.22
29 8 2124.79 9534.23 9768.12
30 8 2079.15 9844.24 10061.4
31 8 2028.06 10150.3 10350.9
32 8 1976.78 10449.9 10635.2
33 8 1923.3 10741.1 10912
34 8 1861.17 11025.5 11181.5
35 8 1792.17 11301 11442.2
36 8 1717.32 11566.7 11693.5
37 8 1636.31 11823.7 11936.4
38 8 1546.82 12063.7 12162.4
39 8 1454.22 12289.7 12375.4
40 8 1358.05 12501.9 12575.5
41 8 1254.55 12701.9 12763.7
42 8 1146.02 12887 12937.9
43 8 1030.31 13053.9 13094.5
44 8 914.65 13203.2 13234.9
45 8 793.776 13332.7 13356.3
46 8 664.502 13443.1 13459.5
47 8 536.248 13534.8 13545.4
48 8 405.405 13606.4 13612.4
49 8 269.256 13656.2 13658.9
50 8 131.539 13685.5 13686.1
51 8 -4.22124 13693.8 13693.8
52 8 -137.883 13682 13682.7
53 8 -272.826 13652.9 13655.7
54 8 -406.745 13604.6 13610.7
55 8 -536.625 13534.3 13544.9
56 8 -666.401 13439.7 13456.2
57 8 -794.75 13325.7 13349.4
58 8 -917.925 13196 13227.9
59 8 -1035.25 13049 13090
60 8 -1149.98 12882.9 12934.2
61 8 -1258.08 12702.6 12764.7
62 8 -1356.5 12505.7 12579
63 8 -1452.11 12292.1 12377.5
64 8 -1545.14 12065.3 12163.9
65 8 -1633.63 11826.4 11938.6
66 8 -1711.62 11573 11698.9
67 8 -1783.51 11306.6 11446.4
68 8 -1854.55 11032.6 11187.4
69 8 -1918.77 10750.3 10920.2
70 8 -1977.38 10457.8 10643.1
71 8 -2032.8 10156 10357.4
72 8 -2084.37 9849.77 10067.9
73 8 -2128.98 9538.17 9772.89
74 8 -2167.32 9218.98 9470.32
75 8 -2203.99 8896.21 9165.15
76 8 -2237.2 8568.56 8855.81
77 8 -2263.52 8238.29 8543.59
78 8 -2286.31 7904.3 8228.31
79 8 -2308.4 7566.82 7911.1
80 8 -2328.46 7226.89 7592.74
81 8 -2345.08 6886.08 7274.44
82 8 -2359.38 6541.74 6954.22
83 8 -2370.76 6196.99 6635
84 8 -2378.43 5852.86 6317.66
85 8 -2384.43 5508.64 6002.55
86 8 -2389.39 5163.26 5689.32
87 8 -2393.57 4817.9 5379.71
88 8 -2396.6 4472.91 5074.51
89 8 -2398.6 4127.11 4773.5
90 8 -2400.42 3781.41 4478.96
91 8 -2401.69 3435.88 4192.06
92 8 -2402.32 3091.41 3915.1
93 8 -2402.67 2746.99 3649.49
94 8 -2402.5 2402.43 3397.6
95 8 -2402.16 2058.82 3163.72
96 8 -2401.94 1715.37 2951.57
97 8 -2401.59 1372.03 2765.88
98 8 -2401.1 1028.82 2612.23
99 8 -2400.77 685.899 2496.83
100 8 -2400.73 342.856 2425.09
101 8 -1200.38 -0 1200.38
1 9 1372.12 -0 1372.12
2 9 2744.37 342.403 2765.65
3 9 2744.91 685.346 2829.17
4 9 2745.64 1028.52 2931.96
5 9 2746.13 1371.74 3069.68
6 9 2746.68 1715.41 3238.34
7 9 2747.02 2059.39 3433.25
8 9 2747.92 2403.85 3650.97
9 9 2748.29 2749.36 3887.42
10 9 2747.67 3095.08 4138.75
11 9 2747.89 3441.53 4403.98
12 9 2746.75 3787.25 4678.45
13 9 2744.81 4133.55 4961.87
14 9 2743.68 4481.06 5254.3
15 9 2741.97 4828.29 5552.55
16 9 2738.46 5174.63 5854.57
17 9 2731.63 5521.96 6160.67
18 9 2722.26 5868.23 6468.91
19 9 2712.63 6214.62 6780.84
20 9 2702.24 6561.4 7096.06
21 9 2687.1 6906.76 7411.06
22 9 2669.92 7251.67 7727.56
23 9 2652.1 7593.7 8043.51
24 9 2628.93 7934.61 8358.78
25 9 2600.75 8271.82 8671.03
26 9 2567.17 8607.49 8982.16
27 9 2527.85 8938.63 9289.2
28 9 2486.77 9264.86 9592.79
29 9 2441.08 9587.6 9893.48
30 9 2390.26 9903.54 10187.9
31 9 2334.95 10215.1 10478.6
32 9 2274.91 10521.1 10764.2
33 9 2212.86 10818.2 11042.2
34 9 2144.07 11108.3 11313.3
35 9 2066.16 11389.8 11575.7
36 9 1981.68 11662 11829.2
37 9 1887.4 11924 12072.4
38 9 1783.46 12170.5 12300.5
39 9 1676.35 12405.6 12518.4
40 9 1565.71 12622.4 12719.1
41 9 1449.48 12827.2 12908.9
42 9 1324.03 13014.9 13082.1
43 9 1191.58 13186.5 13240.3
44 9 1056.51 13342.3 13384.1
45 9 914.31 13474.8 13505.8
46 9 766.609 13588.3 13609.9
47 9 618.463 13681.7 13695.6
48 9 466.532 13753.6 13761.5
49 9 309.467 13806.6 13810
50 9 151.102 13839.3 13840.1
51 9 -5.92018 13849.9 13849.9
52 9 -158.926 13837.4 13838.3
53 9 -311.93 13806 13809.5
54 9 -466.842 13755.5 13763.4
55 9 -620.836 13681.8 13695.8
56 9 -772.715 13585 13607
57 9 -917.708 13468.8 13500
58 9 -1057.23 13335.1 13376.9
59 9 -1194.02 13182.3 13236.3
60 9 -1325.91 13011.7 13079.1
61 9 -1448.89 12825.5 12907
62 9 -1563.74 12622.8 12719.3
63 9 -1674.77 12404.1 12516.6
64 9 -1780.41 12171.7 12301.2
65 9 -1880.98 11926 12073.4
66 9 -1973.36 11668.7 11834.4
67 9 -2056.54 11397.8 11581.8
68 9 -2135.54 11117.7 11321
69 9 -2209.91 10828.3 11051.5
70 9 -2279.64 10529.5 10773.4
71 9 -2341.13 10220.8 10485.5
72 9 -2395.34 9907.91 10193.3
73 9 -2446 9590.75 9897.75
74 9 -2490.83 9267.93 9596.81
75 9 -2531.27 8939.95 9291.4
76 9 -2567.52 8608.77 8983.49
77 9 -2597.87 8274.93 8673.14
78 9 -2624.37 7935.47 8358.17
79 9 -2649.2 7592.97 8041.86
80 9 -2671.19 7248.45 7724.98
81 9 -2689.44 6903.6 7408.97
82 9 -2704.58 6557.55 7093.39
83 9 -2715.26 6211.07 6778.65
84 9 -2722.99 5865.51 6466.76
85 9 -2730.35 5518.31 6156.83
86 9 -2735.72 5170.95 5850.03
87 9 -2739.56 4824.5 5548.06
88 9 -2742.94 4477.96 5251.27
89 9 -2745.24 4130.99 4959.98
90 9 -2746.92 3783.46 4675.48
91 9 -2747.01 3437.24 4400.08
92 9 -2746.78 3092.16 4135.97
93 9 -2747.4 2747.28 3885.32
94 9 -2746.73 2402.79 3649.38
95 9 -2745.72 2058.72 3431.81
96 9 -2745.39 1714.98 3237.03
97 9 -2744.84 1371.61 3068.47
98 9 -2744.15 1028.47 2930.55
99 9 -2743.79 685.457 2828.12
100 9 -2743.56 342.664 2764.87
101 9 -1371.7 -0 1371.7
1 10 1543.29 -0 1543.29
2 10 3087.08 342.467 3106.02
3 10 3087.93 685.324 3163.06
4 10 3088.63 1028.11 3255.25
5 10 3089.61 1371.14 3380.2
6 10 3090.63 1714.75 3534.45
7 10 3091.67 2058.68 3714.38
8 10 3093.33 2404.09 3917.69
9 10 3094.21 2749.87 4139.56
10 10 3094.38 3096.75 4377.79
11 10 3094.38 3443.61 4629.65
12 10 3093.18 3790.18 4892.16
13 10 3092.56 4138.89 5166.65
14 10 3091.57 4487.35 5449.23
15 10 3089.21 4835.76 5738.28
16 10 3086.25 5184.06 6033.19
17 10 3079.4 5532.99 6332.2
18 10 3070.03 5881.75 6634.76
19 10 3061.17 6231.48 6942.78
20 10 3049.54 6580.2 7252.5
21 10 3032.56 6928.28 7562.9
22 10 3014.7 7276.26 7876.07
23 10 2995.54 7622.58 8190.05
24 10 2970.21 7966.85 8502.52
25 10 2939.33 8309.43 8813.98
26 10 2903.02 8649.83 9123.99
27 10 2860.13 8987.36 9431.49
28 10 2814.25 9319.95 9735.58
29 10 2763.48 9647.97 10035.9
30 10 2706.64 9972.6 10333.4
31 10 2645.6 10289.6 10624.3
32 10 2579.93 10602.1 10911.4
33 10 2510.47 10908 11193.1
34 10 2432.73 11205 11466.1
35 10 2345.91 11491.7 11728.7
36 10 2251.5 11770.2 11983.6
37 10 2144.81 12036.4 12226
38 10 2028.49 12292 12458.2
39 10 1906.13 12534.3 12678.4
40 10 1779.63 12759.8 12883.3
41 10 1647.08 12969.6 13073.8
42 10 1505.32 13161.1 13246.9
43 10 1357.7 13337.8 13406.7
44 10 1202.93 13496.2 13549.7
45 10 1039.78 13634.2 13673.8
46 10 871.356 13752.5 13780.1
47 10 701.556 13848.7 13866.4
48 10 530.301 13924.2 13934.3
49 10 354.885 13979.2 13983.7
50 10 174.924 14015 14016.1
51 10 -6.06855 14028.3 14028.3
52 10 -181.868 14017.2 14018.4
53 10 -354.718 13981.6 13986.1
54 10 -530.953 13927.7 13937.8
55 10 -707.111 13850.8 13868.8
56 10 -879.356 13752.3 13780.4
57 10 -1044.7 13633.6 13673.6
58 10 -1204.39 13493.8 13547.4
59 10 -1358.66 13334.3 13403.3
60 10 -1506.85 13159 13245
61 10 -1646.99 12965.5 13069.7
62 10 -1777.89 12756.2 12879.5
63 10 -1903.21 12532 12675.7
64 10 -2023.19 12291.8 12457.2
65 10 -2136.56 12036.7 12224.9
66 10 -2239.84 11771.5 11982.7
67 10 -2334.53 11493.9 11728.5
68 10 -2424.07 11206.4 11465.6
69 10 -2507.01 10910.2 11194.5
70 10 -2584.83 10606.5 10916.9
71 10 -2654.37 10295.2 10631.9
72 10 -2714.46 9975.02 10337.8
73 10 -2768.97 9649.68 10039.1
74 10 -2818.12 9321.86 9738.53
75 10 -2863.14 8988.34 9433.33
76 10 -2902.22 8652.38 9126.14
77 10 -2936.81 8313.26 8816.76
78 10 -2968.27 7968.25 8503.16
79 10 -2995.43 7620.53 8188.11
80 10 -3017.83 7272.42 7873.72
81 10 -3035.98 6924.11 7560.46
82 10 -3051.91 6575.52 7249.25
83 10 -3062.79 6225.9 6938.48
84 10 -3071.19 5876.61 6630.74
85 10 -3079 5527.55 6327.25
86 10 -3083.2 5179.19 6027.45
87 10 -3086.56 4830.68 5732.56
88 10 -3090.11 4482.46 5444.37
89 10 -3093.1 4134.2 5163.22
90 10 -3094.16 3785.99 4889.54
91 10 -3092.98 3438.75 4625.1
92 10 -3092.29 3092.5 4373.31
93 10 -3092.04 2746.86 4135.93
94 10 -3091.05 2402.62 3915
95 10 -3089.97 2058.19 3712.69
96 10 -3089.04 1714.22 3532.81
97 10 -3088.1 1370.85 3378.7
98 10 -3087.26 1027.72 3253.82
99 10 -3086.58 684.936 3161.66
100 10 -3086.19 342.411 3105.13
101 10 -1543.04 -0 1543.04
1 11 1714.59 -0 1714.59
2 11 3429.7 342.479 3446.75
3 11 3430.55 684.713 3498.22
4 11 3431.45 1027.21 3581.9
5 11 3432.78 1369.96 3696.05
6 11 3434.22 1713.2 3837.83
7 11 3436.35 2057.92 4005.44
8 11 3439.11 2403.19 4195.57
9 11 3440.95 2749.61 4404.6
10 11 3441.41 3096.61 4629.51
11 11 3441.32 3443.91 4868.59
12 11 3442.03 3792.06 5121.26
13 11 3441.98 4142.07 5385.54
14 11 3440.55 4491.18 5657.57
15 11 3438.69 4841.99 5938.81
16 11 3435.69 5193.25 6226.86
17 11 3429.32 5543.5 6518.48
18 11 3420.74 5895.52 6816.06
19 11 3411.08 6248.43 7118.87
20 11 3399.04 6600.32 7424.13
21 11 3383.16 6951.85 7731.36
22 11 3364.23 7303.94 8041.49
23 11 3342.7 7654.2 8352.27
24 11 3315.78 8003.28 8662.96
25 11 3283.73 8349.42 8971.94
26 11 3245.11 8696.32 9282.06
27 11 3197.97 9038.97 9588.02
28 11 3147.38 9378.8 9892.82
29 11 3093.73 9714.18 10194.9
30 11 3031.89 10046.7 10494.2
31 11 2964.41 10373 10788.3
32 11 2893.27 10692 11076.5
33 11 2815.82 11004.9 11359.4
34 11 2727.78 11311.8 11636.1
35 11 2631.37 11606 11900.5
36 11 2526.4 11889.5 12154.9
37 11 2409.12 12162.5 12398.8
38 11 2281.39 12425.8 12633.5