title="Electric Field"
variables = "x","y","Ex","Ey","E"
zone i=101,j=101,f=point
1 1 -0 -0 0
2 1 -0 143.27 143.27
3 1 -0 687.715 687.715
4 1 -0 779.922 779.922
5 1 -0 895.685 895.685
6 1 -0 1000.6 1000.6
7 1 -0 1227.33 1227.33
8 1 -0 1151.95 1151.95
9 1 -0 1489.16 1489.16
10 1 -0 1854.95 1854.95
11 1 -0 2103.53 2103.53
12 1 -0 2158.24 2158.24
13 1 -0 2145.23 2145.23
14 1 -0 2085.76 2085.76
15 1 -0 2045.89 2045.89
16 1 -0 2152.75 2152.75
17 1 -0 2279.29 2279.29
18 1 -0 2428.88 2428.88
19 1 -0 2398.55 2398.55
20 1 -0 2357.69 2357.69
21 1 -0 2527.35 2527.35
22 1 -0 2540.62 2540.62
23 1 -0 2652.57 2652.57
24 1 -0 2683.55 2683.55
25 1 -0 2741.5 2741.5
26 1 -0 2810.43 2810.43
27 1 -0 2867.8 2867.8
28 1 -0 2946.93 2946.93
29 1 -0 3101.21 3101.21
30 1 -0 3204.65 3204.65
31 1 -0 3271.7 3271.7
32 1 -0 3430.07 3430.07
33 1 -0 3584.92 3584.92
34 1 -0 3559.7 3559.7
35 1 -0 3579.25 3579.25
36 1 -0 3641.24 3641.24
37 1 -0 3647.33 3647.33
38 1 -0 3667.36 3667.36
39 1 -0 3622.14 3622.14
40 1 -0 3638.32 3638.32
41 1 -0 3497.41 3497.41
42 1 -0 3621.07 3621.07
43 1 -0 3828.43 3828.43
44 1 -0 4057.59 4057.59
45 1 -0 4285.1 4285.1
46 1 -0 4350.44 4350.44
47 1 -0 4228.72 4228.72
48 1 -0 4356.19 4356.19
49 1 -0 4321.08 4321.08
50 1 -0 4374.81 4374.81
51 1 -0 4347.58 4347.58
52 1 -0 4137.51 4137.51
53 1 -0 3771.88 3771.88
54 1 -0 3974.24 3974.24
55 1 -0 4133.97 4133.97
56 1 -0 4270.97 4270.97
57 1 -0 4363.39 4363.39
58 1 -0 4339.76 4339.76
59 1 -0 4212.44 4212.44
60 1 -0 4137.61 4137.61
61 1 -0 4283.05 4283.05
62 1 -0 4124.08 4124.08
63 1 -0 4052.91 4052.91
64 1 -0 3996.61 3996.61
65 1 -0 4019.96 4019.96
66 1 -0 3935.56 3935.56
67 1 -0 3849.75 3849.75
68 1 -0 3564.92 3564.92
69 1 -0 3426.27 3426.27
70 1 -0 3365.77 3365.77
71 1 -0 3383.78 3383.78
72 1 -0 3371.42 3371.42
73 1 -0 3317.07 3317.07
74 1 -0 3197.42 3197.42
75 1 -0 3161.31 3161.31
76 1 -0 2931.14 2931.14
77 1 -0 2774.77 2774.77
78 1 -0 2627.48 2627.48
79 1 -0 2618.17 2618.17
80 1 -0 2632.39 2632.39
81 1 -0 2613.47 2613.47
82 1 -0 2678.62 2678.62
83 1 -0 2605.92 2605.92
84 1 -0 2397.91 2397.91
85 1 -0 2294.12 2294.12
86 1 -0 2309.12 2309.12
87 1 -0 2310.33 2310.33
88 1 -0 2163.92 2163.92
89 1 -0 1929.81 1929.81
90 1 -0 1823.94 1823.94
91 1 -0 1750.04 1750.04
92 1 -0 1554.5 1554.5
93 1 -0 1130.41 1130.41
94 1 -0 1105.4 1105.4
95 1 -0 746.427 746.427
96 1 -0 692.488 692.488
97 1 -0 665.651 665.651
98 1 -0 539.145 539.145
99 1 -0 297.342 297.342
100 1 -0 -102.735 102.735
101 1 -0 -0 0
1 2 143.27 -0 143.27
2 2 687.715 411.992 801.679
3 2 636.652 1615.44 1736.37
4 2 207.97 1685.64 1698.43
5 2 220.674 1955.97 1968.38
6 2 331.644 2281.92 2305.89
7 2 151.358 2659.05 2663.36
8 2 261.835 3090.17 3101.24
9 2 702.991 3560.05 3628.79
10 2 614.367 3983.39 4030.49
11 2 303.293 4090.41 4101.64
12 2 41.7012 4119.98 4120.19
13 2 -72.481 4250.19 4250.8
14 2 -99.3427 4148.32 4149.51
15 2 66.9899 4307.61 4308.13
16 2 233.402 4757.36 4763.08
17 2 276.132 5018.61 5026.2
18 2 119.264 5198.21 5199.58
19 2 -71.1869 5230.12 5230.6
20 2 128.798 5278.07 5279.64
21 2 182.925 5420.6 5423.69
22 2 125.22 5425.37 5426.82
23 2 142.935 5475.18 5477.04
24 2 88.9308 5724.4 5725.09
25 2 126.876 5943.18 5944.53
26 2 126.301 6177.82 6179.11
27 2 136.506 6367.31 6368.78
28 2 233.408 6398.05 6402.3
29 2 257.714 6511.59 6516.69
30 2 170.483 6530.56 6532.79
31 2 225.425 6717.88 6721.66
32 2 313.226 7107.79 7114.68
33 2 129.624 7408.19 7409.32
34 2 -5.675 7414.46 7414.46
35 2 81.5437 7335.18 7335.63
36 2 68.0799 7367.7 7368.01
37 2 26.1202 7343.72 7343.76
38 2 -25.1822 7525.61 7525.65
39 2 -29.0424 7535.2 7535.25
40 2 -124.737 7391.45 7392.5
41 2 -17.251 7092.18 7092.2
42 2 331.022 7398.18 7405.58
43 2 436.523 7705.04 7717.4
44 2 456.668 8203.35 8216.05
45 2 292.846 8784.01 8788.89
46 2 -56.3727 9096.74 9096.91
47 2 5.74968 8928.84 8928.85
48 2 92.3586 9005.95 9006.42
49 2 18.6192 8895.97 8895.99
50 2 26.4968 8893.15 8893.19
51 2 -237.296 9001.81 9004.94
52 2 -575.702 8770.64 8789.51
53 2 -163.268 8236.34 8237.96
54 2 362.091 8612.34 8619.95
55 2 296.728 8450.59 8455.79
56 2 229.421 8722.32 8725.33
57 2 68.7949 8969.59 8969.86
58 2 -150.948 8861.66 8862.95
59 2 -202.156 8772.75 8775.08
60 2 70.6116 8647.66 8647.95
61 2 -13.5243 8826.19 8826.2
62 2 -230.147 8412.75 8415.9
63 2 -127.475 8119.48 8120.48
64 2 -32.9479 8121.71 8121.78
65 2 -61.0475 8318.26 8318.48
66 2 -170.213 8205.35 8207.11
67 2 -370.643 7890.47 7899.17
68 2 -423.477 7588.17 7599.97
69 2 -199.149 7353.07 7355.77
70 2 -42.4849 7096.89 7097.02
71 2 5.65549 6909.32 6909.32
72 2 -66.7179 6864.1 6864.43
73 2 -174 6873.12 6875.32
74 2 -155.761 6811.86 6813.64
75 2 -266.289 6558.82 6564.22
76 2 -386.531 6253.06 6264.99
77 2 -303.66 6135.5 6143.01
78 2 -156.601 5921.79 5923.86
79 2 4.91285 5652 5652
80 2 -4.69943 5523.84 5523.84
81 2 46.2335 5461.96 5462.16
82 2 -7.55639 5243.92 5243.92
83 2 -280.715 5155.45 5163.09
84 2 -311.794 4905.79 4915.69
85 2 -88.784 4704.84 4705.68
86 2 16.2015 4793.24 4793.27
87 2 -145.2 4692.69 4694.94
88 2 -380.513 4470.15 4486.31
89 2 -339.978 4089.93 4104.03
90 2 -179.775 3846.72 3850.92
91 2 -269.442 3626.67 3636.66
92 2 -619.628 3393.57 3449.68
93 2 -449.105 3221.87 3253.02
94 2 -383.982 2902.06 2927.35
95 2 -412.909 2519.67 2553.28
96 2 -80.7756 2378.29 2379.66
97 2 -153.343 1836.23 1842.62
98 2 -368.309 1543.12 1586.47
99 2 -641.88 1386.38 1527.76
100 2 -297.342 435.541 527.359
101 2 102.735 -0 102.735
1 3 411.992 -0 411.992
2 3 1615.44 514.792 1695.48
3 3 1273.65 992.125 1614.47
4 3 340.525 1299.83 1343.7
5 3 596.271 1227.01 1364.22
6 3 703.086 1458.98 1619.55
7 3 808.255 1733.87 1913
8 3 900.995 2412.46 2575.22
9 3 893.221 2763.31 2904.08
10 3 530.364 3279.95 3322.55
11 3 136.59 3379.86 3382.62
12 3 159.774 3340.82 3344.64
13 3 28.3345 3909.85 3909.96
14 3 57.4251 4263.95 4264.33
15 3 609.042 4439.11 4480.69
16 3 710.994 4654.6 4708.59
17 3 440.85 5069.52 5088.66
18 3 211.514 5396.33 5400.47
19 3 79.8615 5566.31 5566.88
20 3 190.481 5800.37 5803.5
21 3 147.302 6097.52 6099.3
22 3 54.5764 5890.84 5891.1
23 3 299.027 5896.2 5903.78
24 3 468 6258.37 6275.84
25 3 453.423 6479.19 6495.03
26 3 424.137 6821.36 6834.54
27 3 220.228 7111.47 7114.87
28 3 144.28 7187.06 7188.51
29 3 132.515 7016.66 7017.91
30 3 206.281 7057.61 7060.62
31 3 577.223 7026.15 7049.82
32 3 690.314 7333.12 7365.54
33 3 306.676 7735.45 7741.53
34 3 -73.0106 7829.28 7829.62
35 3 -46.7662 7660.71 7660.85
36 3 8.53651 7674.55 7674.55
37 3 157.915 7339.41 7341.1
38 3 191.483 7844.96 7847.3
39 3 -134.16 7829.41 7830.56
40 3 -443.015 7408.84 7422.08
41 3 6.73057 7204.51 7204.52
42 3 612.858 7416.39 7441.67
43 3 805.168 7412.99 7456.59
44 3 1078.97 7362.57 7441.21
45 3 893.386 7551.52 7604.18
46 3 144.837 7877.63 7878.96
47 3 -90.7903 7774.94 7775.47
48 3 -32.8731 8149.77 8149.83
49 3 -112.792 8059.93 8060.72
50 3 105.839 8001.48 8002.18
51 3 -122.514 7852.52 7853.48
52 3 -765.47 8217.83 8253.4
53 3 -158.303 8083.66 8085.21
54 3 214.245 8253.34 8256.12
55 3 109.978 8008.44 8009.19
56 3 519.007 8191.29 8207.71
57 3 139.347 8390.34 8391.5
58 3 -196.843 8446.33 8448.62
59 3 -214.004 8717.17 8719.8
60 3 53.4408 8641.95 8642.12
61 3 -234.909 8859.28 8862.39
62 3 -706.71 8262.37 8292.54
63 3 -291.04 8227.98 8233.12
64 3 198.777 8211.64 8214.04
65 3 83.6384 8375.65 8376.07
66 3 -427.786 8399.8 8410.69
67 3 -617.182 8182.64 8205.88
68 3 -537.402 8180.43 8198.06
69 3 -491.271 8003.01 8018.07
70 3 -443.754 7405.46 7418.75
71 3 -232.791 7334.12 7337.81
72 3 -36.1952 7266.1 7266.19
73 3 -52.2449 7295.54 7295.73
74 3 -314.304 7305.95 7312.71
75 3 -558.803 7124.87 7146.75
76 3 -423.315 7031.61 7044.34
77 3 -331.27 7052.87 7060.65
78 3 -483.501 6740.43 6757.75
79 3 -397.951 6321.14 6333.66
80 3 -190.038 6100.41 6103.37
81 3 -279.916 6023.11 6029.61
82 3 -306.508 5269.96 5278.87
83 3 -338.132 5003.39 5014.8
84 3 -450.617 5064.29 5084.3
85 3 -112.546 4847.22 4848.52
86 3 -12.1483 4922.74 4922.76
87 3 -323.097 4601.06 4612.39
88 3 -602.761 4557.83 4597.51
89 3 -623.422 4118.68 4165.6
90 3 -463.261 3267.26 3299.94
91 3 -453.149 2788.67 2825.24
92 3 -404.801 3110.88 3137.11
93 3 -491.519 2965.95 3006.4
94 3 -702.196 1681.66 1822.37
95 3 -523.764 1204.05 1313.03
96 3 -683.439 671.008 957.779
97 3 -835.169 718.272 1101.55
98 3 -449.85 805.354 922.475
99 3 -1107.58 1126.6 1579.86
100 3 -1386.38 533.637 1485.54
101 3 -435.541 -0 435.541
1 4 658.062 -0 658.062
2 4 1679.84 90.6513 1682.28
3 4 1421.69 159.174 1430.57
4 4 442.852 512.729 677.502
5 4 379.824 -21.5328 380.434
6 4 838.503 -336.898 903.652
7 4 1104.84 -115.146 1110.82
8 4 1291.27 39.5104 1291.88
9 4 1570.48 284.193 1595.99
10 4 1230.92 229.132 1252.07
11 4 364.161 385.689 530.442
12 4 571.696 962.406 1119.4
13 4 850.648 1412.94 1649.24
14 4 429.908 2208.44 2249.9
15 4 457.648 2422.82 2465.66
16 4 863.821 1813.04 2008.3
17 4 1017.85 2125.93 2357.03
18 4 616.046 2434.42 2511.15
19 4 332.856 2745.27 2765.37
20 4 660.016 3050.15 3120.74
21 4 273.4 3449.34 3460.16
22 4 -76.1049 3441.9 3442.74
23 4 510.46 3489.45 3526.59
24 4 671.92 3754.18 3813.83
25 4 689.872 3743.06 3806.11
26 4 758.578 4110.28 4179.69
27 4 502.205 3820.38 3853.25
28 4 138.603 3406.61 3409.43
29 4 128.256 3101.58 3104.23
30 4 179.974 3061.11 3066.4
31 4 500.94 3046.15 3087.07
32 4 1022.53 3058.24 3224.65
33 4 625.781 3126.37 3188.38
34 4 -80.4192 3164.83 3165.85
35 4 -73.1876 2914.33 2915.25
36 4 -253.221 2862.71 2873.89
37 4 196.537 2782.58 2789.51
38 4 464.826 3000.88 3036.66
39 4 -465.165 2958.15 2994.5
40 4 -749.637 2625.38 2730.31
41 4 -9.70554 2714.15 2714.17
42 4 539.497 2564.01 2620.15
43 4 382.701 2638.93 2666.53
44 4 595.194 2326.04 2400.98
45 4 807.914 1814.73 1986.45
46 4 167.05 1742.11 1750.1
47 4 277.884 1968.39 1987.91
48 4 377.352 2136.2 2169.28
49 4 -129.665 2175.89 2179.75
50 4 -180.914 2011.39 2019.51
51 4 -20.9514 1651.59 1651.73
52 4 -344.56 2003.14 2032.56
53 4 -127.753 2623.98 2627.09
54 4 286.867 2341.15 2358.66
55 4 234.67 2524.43 2535.31
56 4 611.325 2571.45 2643.12
57 4 323.834 2340.98 2363.27
58 4 175.884 2526.46 2532.57
59 4 -6.52903 2601.74 2601.75
60 4 212.715 2778.81 2786.93
61 4 -393.111 2992.37 3018.08
62 4 -861.45 3293.25 3404.06
63 4 -178.206 3772.04 3776.25
64 4 114.731 3829.02 3830.74
65 4 127.121 3703.38 3705.57
66 4 -363.226 3643.04 3661.1
67 4 -590.018 4028.18 4071.17
68 4 -603.108 3971.98 4017.5
69 4 -974.117 4208.52 4319.79
70 4 -711.377 4156.31 4216.75
71 4 -133.709 4602.92 4604.86
72 4 -105.295 4631.58 4632.77
73 4 -134.142 4538.36 4540.34
74 4 -326.428 4360.69 4372.89
75 4 -540.632 4533.96 4566.08
76 4 -458.534 4623.74 4646.42
77 4 -594.843 4413.61 4453.51
78 4 -888.327 4371.47 4460.81
79 4 -635.109 4173.1 4221.15
80 4 -302.733 3882.88 3894.66
81 4 -784.21 4168.43 4241.55
82 4 -1027.28 3817.96 3953.75
83 4 -486.385 3204.56 3241.27
84 4 -467.964 3075.67 3111.06
85 4 -230.331 2867.37 2876.61
86 4 -229.958 2391.98 2403
87 4 -510.115 1931.28 1997.51
88 4 -862.889 1814.26 2009
89 4 -1630.54 1163.11 2002.87
90 4 -1509.79 757.609 1689.21
91 4 -425.822 83.8612 434.001
92 4 -442.342 185.795 479.777
93 4 -1878.33 -132.724 1883.02
94 4 -2145.89 -823.534 2298.49
95 4 -1423.56 -788.36 1627.28
96 4 -566.549 -993.072 1143.32
97 4 -18.9963 -374.381 374.862
98 4 40.016 -95.373 103.428
99 4 -913.598 327.176 970.415
100 4 -1423.94 136.043 1430.42
101 4 -430.902 -0 430.902
1 5 502.644 -0 502.644
2 5 1774.62 -11.2796 1774.65
3 5 1695.73 434.033 1750.4
4 5 159.818 374.926 407.568
5 5 -253.355 -159.26 299.254
6 5 609.472 -483.229 777.796
7 5 1184.66 -834.147 1448.87
8 5 1300.33 -1129.56 1722.43
9 5 1082.84 -1002.33 1475.54
10 5 631.86 -2138.42 2229.82
11 5 869.864 -2628.82 2769
12 5 1187.03 -1718.3 2088.44
13 5 1274.37 -1976.41 2351.64
14 5 1067.3 -1843.2 2129.91
15 5 213.635 -1500.33 1515.46
16 5 414.104 -1677.11 1727.48
17 5 1062.23 -2078.58 2334.27
18 5 830.857 -2081.77 2241.44
19 5 695.598 -1622.94 1765.73
20 5 894.552 -1591.27 1825.48
21 5 539.052 -1864.81 1941.16
22 5 94.6906 -1330.24 1333.6
23 5 611.303 -887.838 1077.94
24 5 721.61 -755.669 1044.87
25 5 809.521 -1165.78 1419.29
26 5 501.454 -1114.65 1222.26
27 5 -483.437 -1648.03 1717.48
28 5 -574.516 -2378.34 2446.75
29 5 -212.986 -2452.1 2461.33
30 5 150.85 -2603.43 2607.8
31 5 574.349 -2591.87 2654.74
32 5 770.526 -2747.2 2853.21
33 5 413.269 -3024.82 3052.92
34 5 -285.043 -3120.18 3133.17
35 5 -348.881 -3442.81 3460.45
36 5 -123.218 -3614.23 3616.33
37 5 296.077 -3378.95 3391.9
38 5 367.059 -3703.66 3721.81
39 5 -509.655 -3392.08 3430.15
40 5 -687.02 -3188.9 3262.06
41 5 -54.6413 -2993.15 2993.65
42 5 537.639 -3135.94 3181.7
43 5 567.201 -3123.2 3174.28
44 5 254.771 -3142.86 3153.17
45 5 309.453 -3637.43 3650.57
46 5 298.497 -3943.8 3955.08
47 5 303.305 -3690.11 3702.55
48 5 174.621 -3972.93 3976.77
49 5 -237.604 -3870.43 3877.72
50 5 -418.455 -4197.33 4218.14
51 5 -130.764 -4110.26 4112.34
52 5 206.921 -4003.3 4008.65
53 5 179.708 -3384.22 3388.99
54 5 114.689 -3738.53 3740.29
55 5 340.275 -3312.12 3329.55
56 5 335.554 -3478.59 3494.74
57 5 94.3565 -4212.36 4213.41
58 5 63.9187 -4314.8 4315.28
59 5 38.3429 -4423.28 4423.45
60 5 444.075 -4069.38 4093.54
61 5 279.538 -3982.97 3992.77
62 5 72.9617 -3053.69 3054.56
63 5 244.726 -2950.34 2960.47
64 5 130.118 -2530.86 2534.2
65 5 -102.34 -2785.32 2787.2
66 5 -102.986 -3062.07 3063.81
67 5 -288.246 -2664.52 2680.07
68 5 -357.061 -2421.97 2448.15
69 5 -306.938 -2149.11 2170.92
70 5 -49.3611 -1600.34 1601.1
71 5 242.477 -1299.91 1322.33
72 5 -100.753 -1069.93 1074.66
73 5 -323.134 -1278.51 1318.71
74 5 -318.703 -1198.7 1240.35
75 5 -295.749 -813.668 865.75
76 5 -543.669 -660.842 855.738
77 5 -583.547 -930.8 1098.6
78 5 -724.012 -649.425 972.598
79 5 -886.542 -599.794 1070.38
80 5 -194.708 -1029.86 1048.1
81 5 -344.832 -783.348 855.887
82 5 -1270.37 -174.015 1282.23
83 5 -1080.42 -448.772 1169.92
84 5 -787.807 -950.364 1234.44
85 5 -796.235 -871.112 1180.18
86 5 -948.246 -1421.58 1708.82
87 5 -900.818 -2144.55 2326.06
88 5 -1370.93 -2542.64 2888.68
89 5 -1680.07 -2450.37 2971.01
90 5 -1542.51 -1760.15 2340.4
91 5 -1024.96 -1750.77 2028.73
92 5 -621.386 -1775.89 1881.46
93 5 -1500.85 -955.927 1779.42
94 5 -1357.83 -184.089 1370.25
95 5 -693.302 470.011 837.603
96 5 -269.46 614.893 671.343
97 5 62.5297 393.112 398.054
98 5 251.707 591.028 642.394
99 5 -876.165 617.725 1072.03
100 5 -1713.56 258.171 1732.9
101 5 -571.584 -0 571.584
1 6 646.783 -0 646.783
2 6 2113.87 376.523 2147.14
3 6 1807.9 885.87 2013.27
4 6 -150.442 718.242 733.829
5 6 -478.331 452.956 658.764
6 6 163.616 332.603 370.669
7 6 458.502 -343.433 572.861
8 6 1123.09 -795.831 1376.47
9 6 561.62 -999.031 1146.07
10 6 -395.565 -1569.25 1618.34
11 6 784.283 -2108.99 2250.09
12 6 1224.1 -2269.28 2578.39
13 6 725.748 -2981.65 3068.7
14 6 905.991 -3772.84 3880.09
15 6 623.737 -4340.03 4384.62
16 6 285.568 -3935.3 3945.65
17 6 613.202 -4345.37 4388.43
18 6 1071.69 -4473.06 4599.65
19 6 823.347 -4375.69 4452.47
20 6 418.146 -4448.78 4468.39
21 6 534.439 -4482.35 4514.1
22 6 900.866 -4207.4 4302.76
23 6 1085.03 -4157.52 4296.77
24 6 393.976 -4424.33 4441.83
25 6 330.887 -4435.18 4447.5
26 6 276.326 -4871.76 4879.59
27 6 -761.481 -5112.8 5169.2
28 6 -665.458 -5227.14 5269.33
29 6 -96.8354 -5417 5417.87
30 6 40.2025 -5293.11 5293.27
31 6 357.171 -5082.35 5094.88
32 6 589.569 -5174.48 5207.96
33 6 252.804 -5495.7 5501.51
34 6 -498.409 -5720.72 5742.39
35 6 -567.241 -6055.77 6082.28
36 6 -189.361 -6060.52 6063.47
37 6 107.106 -6052.27 6053.22
38 6 451.701 -6197.95 6214.39
39 6 49.6018 -6317.25 6317.44
40 6 -350.711 -5996.53 6006.78
41 6 43.2464 -5787.12 5787.28
42 6 409.452 -5809.51 5823.92
43 6 375.782 -5963.72 5975.55
44 6 80.9631 -6076.29 6076.83
45 6 6.97725 -6245.01 6245.01
46 6 114.368 -6625.59 6626.58
47 6 248.751 -6483.89 6488.66
48 6 197.03 -6531.96 6534.93
49 6 -354.059 -6414.82 6424.58
50 6 -420.738 -6482.78 6496.42
51 6 173.075 -6115.48 6117.93
52 6 381.473 -5954.26 5966.46
53 6 137.015 -5895.03 5896.62
54 6 358.975 -5713.94 5725.21
55 6 494.615 -5323.82 5346.74
56 6 -288.915 -5970.67 5977.65
57 6 -512.38 -6545.76 6565.79
58 6 -35.0437 -6666.95 6667.04
59 6 238.892 -6687.31 6691.57
60 6 653.027 -6765.51 6796.95
61 6 622.586 -6818.76 6847.13
62 6 171.179 -6448.38 6450.65
63 6 344.618 -6470.98 6480.15
64 6 279.752 -6267.82 6274.06
65 6 -404.091 -6360.95 6373.78
66 6 -242.428 -6375.78 6380.39
67 6 50.0863 -6170.58 6170.78
68 6 -87.693 -5581.7 5582.39
69 6 -152.489 -5420.74 5422.88
70 6 137.825 -5200.41 5202.24
71 6 396.704 -5238.99 5253.98
72 6 -83.8957 -5161.14 5161.82
73 6 -262.916 -5056.65 5063.48
74 6 138.41 -4947.21 4949.14
75 6 -2.77133 -4715.81 4715.81
76 6 -575.666 -4612.58 4648.36
77 6 -583.427 -4490.75 4528.49
78 6 -557.321 -4415.72 4450.75
79 6 -1015.54 -4240.89 4360.78
80 6 -486.287 -4285.44 4312.95
81 6 71.6357 -4651.36 4651.91
82 6 -692.705 -4240.57 4296.77
83 6 -1262.73 -3975 4170.75
84 6 -890.304 -4182.93 4276.63
85 6 -701.547 -4159.66 4218.4
86 6 -1503.4 -3906.22 4185.54
87 6 -1631.18 -3852.13 4183.25
88 6 -1168.7 -3625.65 3809.36
89 6 -848.052 -2377.74 2524.45
90 6 -810.192 -1907.46 2072.39
91 6 -441.561 -1600.67 1660.46
92 6 352.497 -959.223 1021.94
93 6 -286.533 379.885 475.829
94 6 -719.951 946.867 1189.49
95 6 -624.575 736.396 965.595
96 6 -643.448 791.832 1020.31
97 6 -42.8615 545.669 547.35
98 6 264.629 986.871 1021.74
99 6 -1246.45 477.245 1334.69
100 6 -2041.66 281.284 2060.95
101 6 -689.073 -0 689.073
1 7 879.167 -0 879.167
2 7 2660.49 542.371 2715.21
3 7 2037.45 1121.17 2325.56
4 7 -273.096 936.862 975.855
5 7 -638.994 303.879 707.571
6 7 -186.917 286.303 341.917
7 7 56.229 154.573 164.483
8 7 644.735 289.952 706.934
9 7 309.42 -416.221 518.633
10 7 -478.096 -1156.49 1251.42
11 7 169.835 -1376.64 1387.08
12 7 314.364 -2446.59 2466.7
13 7 -229.18 -2910.8 2919.8
14 7 -291.078 -3728.3 3739.65
15 7 51.1665 -4746.59 4746.87
16 7 408.757 -5133.84 5150.08
17 7 524.474 -5265.87 5291.93
18 7 800.546 -5513.39 5571.2
19 7 719.873 -5972.11 6015.34
20 7 787.889 -5861.98 5914.69
21 7 780.439 -5727.2 5780.13
22 7 419.523 -5560.21 5576.01
23 7 394.37 -6176.84 6189.42
24 7 443.949 -6927.77 6941.98
25 7 362.085 -6722.33 6732.08
26 7 -176.172 -7197.97 7200.12
27 7 -838.813 -7293.55 7341.62
28 7 -878.718 -7181.56 7235.12
29 7 -278.96 -7636.79 7641.89
30 7 485.508 -7618.97 7634.42
31 7 692.986 -7521.81 7553.66
32 7 357.173 -7700.18 7708.46
33 7 -132.977 -7983.08 7984.18
34 7 -845.111 -8009.77 8054.23
35 7 -688.674 -8071.79 8101.11
36 7 -119.725 -8035.52 8036.41
37 7 158.645 -7954.3 7955.88
38 7 102.085 -8135.82 8136.46
39 7 -308.24 -8453.63 8459.25
40 7 -156.889 -8209.98 8211.48
41 7 132.377 -7972.45 7973.55
42 7 361.033 -8102.79 8110.83
43 7 300.423 -8171.15 8176.67
44 7 -26.5155 -8459.51 8459.56
45 7 -239.85 -8650 8653.32
46 7 59.614 -9027.37 9027.57
47 7 396.938 -9216.33 9224.88
48 7 243.693 -9457.93 9461.06
49 7 -188.421 -9683.09 9684.92
50 7 -119.119 -9636.64 9637.38
51 7 397.758 -9042.49 9051.24
52 7 427.375 -9067.57 9077.64
53 7 420.02 -8979.96 8989.78
54 7 685.901 -8665.48 8692.58
55 7 83.5513 -8540.66 8541.07
56 7 -886.395 -8889.21 8933.29
57 7 -601.926 -8380.59 8402.18
58 7 -77.6231 -8339.96 8340.32
59 7 -60.2126 -8449.12 8449.33
60 7 312.617 -8643.05 8648.7
61 7 596.661 -8988.11 9007.89
62 7 420.747 -9161.23 9170.89
63 7 425.292 -8970.27 8980.35
64 7 240.145 -9143.79 9146.95
65 7 -210.304 -8717.19 8719.72
66 7 87.3889 -8285.29 8285.75
67 7 505.832 -8062.84 8078.69
68 7 392.778 -7962.51 7972.19
69 7 74.3547 -7720.01 7720.37
70 7 132.392 -7512.16 7513.32
71 7 281.749 -7455.76 7461.08
72 7 81.5872 -7568.83 7569.27
73 7 -109.202 -7115.52 7116.36
74 7 22.1363 -7084.89 7084.93
75 7 38.8775 -7413.81 7413.91
76 7 -318.613 -7255.76 7262.76
77 7 -386.683 -6756.34 6767.39
78 7 -474.148 -6517.17 6534.4
79 7 -756.269 -6249.75 6295.34
80 7 -605.181 -6147.34 6177.06
81 7 -299.957 -6535.59 6542.47
82 7 -594.012 -6647.04 6673.53
83 7 -1022.79 -6134.38 6219.06
84 7 -972.462 -5806.29 5887.17
85 7 -519.526 -5587.73 5611.83
86 7 -640.714 -5009.33 5050.14
87 7 -620.244 -3707.1 3758.63
88 7 103.46 -3021.27 3023.04
89 7 38.1247 -1987.1 1987.47
90 7 -765.444 -1607.71 1780.63
91 7 -76.7307 -1433.66 1435.71
92 7 1359.17 -871.843 1614.76
93 7 405.243 -190.008 447.577
94 7 -1001.32 419.478 1085.64
95 7 -848.338 -207.457 873.336
96 7 -460.187 529.85 701.793
97 7 257.569 848.042 886.295
98 7 183.283 1658.82 1668.91
99 7 -1581.75 862.289 1801.52
100 7 -2190.8 449.586 2236.46
101 7 -852.868 -0 852.868
1 8 1189.15 -0 1189.15
2 8 3235.04 629.946 3295.81
3 8 2202.39 952.047 2399.36
4 8 -967.732 919.064 1334.61
5 8 -1128.89 328.022 1175.58
6 8 14.3108 175.633 176.215
7 8 462.151 659.883 805.623
8 8 552.293 878.113 1037.36
9 8 -884.825 -649.983 1097.9
10 8 -1355.98 -1826.17 2274.56
11 8 -505.81 -2337.59 2391.68
12 8 -310.051 -3101.26 3116.72
13 8 -555.967 -3375.79 3421.27
14 8 -929.807 -4100.78 4204.87
15 8 -781.799 -4247.16 4318.51
16 8 -233.71 -4850.16 4855.79
17 8 233.652 -5216.94 5222.17
18 8 365.448 -5743.4 5755.01
19 8 474.755 -6527.26 6544.5
20 8 663.057 -6836.19 6868.27
21 8 836.214 -7518.23 7564.59
22 8 451.225 -7638.94 7652.26
23 8 -282.536 -7633.92 7639.14
24 8 -151.513 -8248.35 8249.74
25 8 60.688 -8563.4 8563.61
26 8 -294.889 -8926.92 8931.79
27 8 -745.075 -9207.06 9237.16
28 8 -1008.71 -9344.51 9398.79
29 8 -534.245 -9493.16 9508.18
30 8 155.191 -9617.13 9618.39
31 8 275.966 -9627.78 9631.74
32 8 128.3 -9591.23 9592.09
33 8 -56.7857 -10011.3 10011.4
34 8 -587.119 -10147.7 10164.7
35 8 -592.991 -9840.39 9858.24
36 8 -71.8781 -10052.6 10052.8
37 8 6.79869 -9875.15 9875.15
38 8 -47.6275 -10213 10213.1
39 8 -24.5586 -10353 10353
40 8 130.465 -10243.2 10244.1
41 8 150.443 -10706.1 10707.1
42 8 210.756 -11229.2 11231.1
43 8 19.0543 -11972.4 11972.5
44 8 -397.883 -12357.8 12364.2
45 8 -560.883 -12965.9 12978
46 8 -451.967 -13375.7 13383.3
47 8 -181.8 -14292.4 14293.5
48 8 -269.723 -14754.9 14757.4
49 8 -532.777 -14978.1 14987.6
50 8 219.852 -15086.2 15087.8
51 8 742.149 -15288.1 15306.1
52 8 444.003 -15473.9 15480.2
53 8 539.106 -15536.2 15545.6
54 8 798.283 -15641.7 15662
55 8 270.886 -15733.8 15736.2
56 8 -128.845 -14733.6 14734.1
57 8 36.8679 -13419.1 13419.2
58 8 -103.576 -12814.1 12814.5
59 8 -64.197 -11905.5 11905.7
60 8 114.036 -11612.3 11612.9
61 8 104.399 -11449.7 11450.2
62 8 189.015 -11219.1 11220.7
63 8 362.06 -11094.6 11100.5
64 8 532.84 -11234.2 11246.9
65 8 454.417 -10719.8 10729.4
66 8 411.922 -10372.5 10380.6
67 8 372.866 -10242.3 10249.1
68 8 255.129 -10034.9 10038.2
69 8 297.86 -10002 10006.5
70 8 402.078 -9873.29 9881.47
71 8 340.028 -9713.09 9719.04
72 8 256.346 -9482.97 9486.44
73 8 221.022 -9212.99 9215.64
74 8 -159.877 -9010.86 9012.28
75 8 -173.641 -9141.12 9142.77
76 8 81.8043 -8956.79 8957.17
77 8 155.165 -8433.68 8435.11
78 8 -50.7385 -8188.08 8188.24
79 8 -645.712 -8019.95 8045.9
80 8 -772.123 -8133.1 8169.67
81 8 -428.066 -8098.42 8109.72
82 8 -291.496 -7860.81 7866.21
83 8 -421.986 -7201.21 7213.56
84 8 -343.654 -6380.28 6389.53
85 8 95.4158 -5528.35 5529.17
86 8 377.233 -5043.6 5057.69
87 8 356.878 -3524.15 3542.18
88 8 551.294 -2964.56 3015.39
89 8 565.512 -2578.21 2639.5
90 8 -256.744 -2024.33 2040.55
91 8 294.305 -1215.4 1250.52
92 8 1596.15 -1332.07 2078.96
93 8 1004.79 -1604 1892.73
94 8 -737.4 -678.419 1002
95 8 -514.204 -546.172 750.139
96 8 412.052 103.53 424.859
97 8 1086.11 466.413 1182.02
98 8 278.876 1682.62 1705.58
99 8 -2455.69 888.388 2611.44
100 8 -2903.95 418.897 2934.01
101 8 -1138.66 -0 1138.66
1 9 1509.11 -0 1509.11
2 9 3612.53 551.929 3654.45
3 9 2326.57 499.225 2379.53
4 9 -897.121 1013.94 1353.85
5 9 -1382.43 1409.5 1974.28
6 9 144.944 731.679 745.898
7 9 758.709 687.617 1023.94
8 9 -665.13 -170.414 686.614
9 9 -2394.87 -1763.49 2974.1
10 9 -2165.7 -1881.76 2869.02
11 9 -1105.25 -2849.24 3056.1
12 9 -723.84 -3238.5 3318.41
13 9 -1228.7 -3678.73 3878.5
14 9 -1162.45 -3975.53 4141.99
15 9 -698.215 -3995.43 4055.97
16 9 -561.022 -4314.04 4350.37
17 9 -368.758 -4732.01 4746.36
18 9 -509.778 -5717.18 5739.86
19 9 -372.922 -6412.1 6422.93
20 9 -203.081 -7116.13 7119.03
21 9 -22.3101 -8066.24 8066.27
22 9 303.839 -8784.64 8789.89
23 9 -215.039 -8908.39 8910.98
24 9 -485.534 -9683.21 9695.38
25 9 -316.483 -10256.9 10261.8
26 9 -819.837 -10404.2 10436.5
27 9 -1256.4 -10892.9 10965.1
28 9 -1164.82 -11294.6 11354.5
29 9 -551.587 -11472.2 11485.5
30 9 350.887 -11592.3 11597.6
31 9 718.889 -11211.8 11234.9
32 9 -26.3093 -11244.6 11244.6
33 9 -689.467 -12063.9 12083.6
34 9 -674.233 -12356 12374.3
35 9 -593.53 -11960.6 11975.4
36 9 -154.49 -12003.3 12004.3
37 9 -1.78107 -12271.8 12271.8
38 9 -375.783 -12604.5 12610.1
39 9 -338.481 -13297.9 13302.2
40 9 -509.954 -14267.3 14276.4
41 9 -853.543 -15532.3 15555.8
42 9 -905.321 -16402.3 16427.3
43 9 -828.24 -17653.2 17672.6
44 9 -1019.94 -18381.7 18409.9
45 9 -1257.72 -18992.3 19033.9
46 9 -1266.89 -19586.1 19627
47 9 -982.259 -19847.8 19872.1
48 9 -442.071 -19789.2 19794.1
49 9 -519.761 -19601.4 19608.3
50 9 -429.081 -19330.9 19335.7
51 9 10.1174 -19873.5 19873.5
52 9 179.254 -20058.1 20058.9
53 9 252.24 -20387.3 20388.9
54 9 488.29 -20599.5 20605.3
55 9 991.652 -20845.1 20868.7
56 9 1428.29 -19831.3 19882.6
57 9 1317.51 -19354.3 19399.1
58 9 1435.98 -18704.7 18759.7
59 9 1141.55 -17791 17827.6
60 9 768.439 -16961.2 16978.6
61 9 989.898 -16015.1 16045.7
62 9 775.886 -14653.8 14674.3
63 9 410.152 -13513 13519.2
64 9 614.906 -13185.3 13199.6
65 9 651.49 -12952.2 12968.6
66 9 564.884 -12931.9 12944.2
67 9 843.343 -12527.5 12555.8
68 9 633.077 -11903.1 11920
69 9 236.011 -12127.2 12129.5
70 9 421.325 -11787.7 11795.2
71 9 672.065 -11800.7 11819.9
72 9 581.692 -11505.3 11520
73 9 362.907 -11148.8 11154.8
74 9 94.0052 -10952.6 10953.1
75 9 92.9458 -10597.1 10597.5
76 9 388.824 -10418.7 10426
77 9 382.03 -10148.8 10156
78 9 -60.4101 -9852 9852.19
79 9 -701.293 -9648.5 9673.95
80 9 -683.651 -9231.84 9257.12
81 9 -27.6638 -8649.4 8649.45
82 9 303.198 -7664.03 7670.02
83 9 457.747 -7218.61 7233.11
84 9 700.394 -6816.78 6852.67
85 9 817.15 -5839.33 5896.23
86 9 1363.48 -4905.55 5091.51
87 9 1458.79 -4247.55 4491.07
88 9 1049.41 -3301.63 3464.4
89 9 978.358 -2763.24 2931.32
90 9 597.363 -2284.98 2361.78
91 9 615.531 -1538.15 1656.74
92 9 970.571 -1054.53 1433.19
93 9 1058.89 -1273.47 1656.19
94 9 56.507 -877.733 879.55
95 9 -66.3892 -23.8316 70.537
96 9 552.397 -183.23 581.993
97 9 1836.66 256.556 1854.49
98 9 605.257 1200.78 1344.7
99 9 -2845.48 616.021 2911.4
100 9 -3079.19 323.496 3096.14
101 9 -1271.77 -0 1271.77
1 10 1741.08 -0 1741.08
2 10 3734.27 359.056 3751.49
3 10 2664.4 405.391 2695.06
4 10 -57.4571 1122.08 1123.55
5 10 -1411.15 1713.42 2219.72
6 10 -707.571 730.008 1016.65
7 10 -439.942 -530.915 689.507
8 10 -1898.82 -1956.13 2726.16
9 10 -2596.17 -2204.23 3405.69
10 10 -2441.73 -2033.9 3177.86
11 10 -1862.56 -2539.34 3149.19
12 10 -1139.54 -2938.61 3151.82
13 10 -1292.99 -3476.83 3709.47
14 10 -1246.5 -3448.06 3666.45
15 10 -1120.32 -3612.91 3782.62
16 10 -970.297 -3895.71 4014.73
17 10 -1169.48 -4625.31 4770.87
18 10 -1314.64 -5484.75 5640.1
19 10 -924.203 -6152.28 6221.31
20 10 -991.084 -6827.12 6898.68
21 10 -832.293 -7470.75 7516.96
22 10 -390.925 -8284.65 8293.87
23 10 -1181.11 -9189.7 9265.29
24 10 -1500.06 -10107.5 10218.2
25 10 -660.318 -11031.2 11051
26 10 -930.811 -11612.2 11649.5
27 10 -1635.48 -11933.8 12045.3
28 10 -1588.08 -12176.3 12279.5
29 10 -831.877 -12606.6 12634
30 10 415.591 -12951.2 12957.8
31 10 623.666 -13127 13141.8
32 10 -723.772 -13799 13818
33 10 -1168.19 -14597 14643.6
34 10 -483.858 -14714.7 14722.7
35 10 -240.362 -14915.1 14917.1
36 10 -383.043 -15299 15303.8
37 10 -594.41 -16071.2 16082.2
38 10 -1073.72 -16760.1 16794.5
39 10 -1687.3 -17715.1 17795.2
40 10 -2103.97 -19393.5 19507.3
41 10 -1984.56 -20046.5 20144.5
42 10 -1910.06 -20510.8 20599.6
43 10 -1960.32 -21014.2 21105.5
44 10 -1737.02 -21094.3 21165.7
45 10 -1765.27 -21246.9 21320.1
46 10 -1307.44 -21253.9 21294.1
47 10 -384.93 -20788.4 20791.9
48 10 -23.3925 -20400 20400.1
49 10 -74.4938 -20189.9 20190
50 10 -52.1853 -19860.4 19860.4
51 10 14.9772 -19849.6 19849.6
52 10 -69.8424 -19898.7 19898.8
53 10 -2.35111 -20004 20004
54 10 340.51 -20055.9 20058.8
55 10 1039.15 -20232.6 20259.3
56 10 1361.95 -20358.1 20403.6
57 10 1163.48 -20943.2 20975.5
58 10 1459.68 -21101.8 21152.2
59 10 1679.3 -21465.4 21531
60 10 1889.94 -20881.5 20966.9
61 10 2411.8 -20600.9 20741.6
62 10 2691.19 -20231.5 20409.7
63 10 1830.55 -18668.2 18757.7
64 10 1093.58 -17238.6 17273.2
65 10 707.77 -16398 16413.2
66 10 836.692 -15892.8 15914.8
67 10 1401.62 -15592.8 15655.6
68 10 655.392 -15048.7 15063
69 10 413.324 -14442.1 14448
70 10 728.538 -13756.4 13775.7
71 10 622.4 -13605.8 13620
72 10 908.241 -13305.9 13336.9
73 10 773.689 -13115.2 13138
74 10 391.836 -12708.8 12714.9
75 10 360.263 -12444.1 12449.3
76 10 530.156 -11777.3 11789.2
77 10 721.903 -11210.7 11234
78 10 449.547 -10574 10583.5
79 10 -25.5442 -9683.67 9683.71
80 10 226.97 -8891.91 8894.81
81 10 1139.74 -8352.35 8429.75
82 10 1139.3 -7260.84 7349.68
83 10 425.261 -6847.57 6860.77
84 10 1035.62 -6578.33 6659.35
85 10 2006.65 -5901.15 6232.99
86 10 1969.02 -4710.44 5105.41
87 10 1960.79 -5165.88 5525.49
88 10 2035.6 -4312.69 4768.96
89 10 1582.16 -3377.9 3730.07
90 10 968.34 -2738.88 2905.02
91 10 1524.76 -2334.22 2788.09
92 10 1860.83 -1259.24 2246.86
93 10 1181.59 -631.531 1339.77
94 10 512.236 -325.106 606.695
95 10 180.299 331.696 377.532
96 10 692.439 610.906 923.406
97 10 2470.12 1503.84 2891.89
98 10 638.341 949.804 1144.38
99 10 -3332.97 773.777 3421.62
100 10 -3519.97 410.177 3543.79
101 10 -1462.16 -0 1462.16
1 11 1868.17 -0 1868.17
2 11 4017.93 347.003 4032.88
3 11 3089.59 477.991 3126.34
4 11 410.906 1351.52 1412.6
5 11 -1774.49 1453.85 2294.02
6 11 -2099.39 182.374 2107.29
7 11 -1927.43 -879.625 2118.66
8 11 -2338.44 -1405.77 2728.46
9 11 -2472.64 -1460.1 2871.56
10 11 -2500.81 -1810.17 3087.19
11 11 -2009.96 -1863.72 2741.06
12 11 -1661.33 -2338.39 2868.46
13 11 -1738.15 -2742.77 3247.14
14 11 -1298.52 -3223.86 3475.55
15 11 -1145.87 -3432.63 3618.84
16 11 -1573.42 -3787.93 4101.72
17 11 -1957.79 -4794.35 5178.68
18 11 -2036.75 -5495.5 5860.79
19 11 -1715.29 -6171.55 6405.48