title="eSpeed"
variables = "x","y","vex","vey"
zone i=0
