title="eSpeed"
variables = "x","y","vex","vey"
zone i=80482
1.55897e-06 2.95502e-06 4.48893 -2.4434
3.04537e-06 1.49148e-06 -1.11127 3.256
0.000596208 0.00091983 54.0089 86.371
6.40851e-06 8.72456e-07 -7.56749 9.67163
5.52855e-06 9.51924e-07 -6.11498 8.3741
0.000249564 0.000920722 -177.398 157.701
1.72633e-06 4.23787e-06 7.09691 -5.2416
1.92653e-06 4.22361e-06 6.76419 -4.98117
5.0173e-06 3.98741e-06 1.71577 -1.74616
0.000120854 0.000853157 -106.56 120.477
0.000708879 0.000885542 190.463 90.9316
8.06414e-06 2.48152e-06 -4.84585 10.5127
1.29241e-05 4.00873e-06 -7.55069 14.2659
6.53191e-06 3.08876e-06 -2.14108 2.71612
1.27452e-05 4.94997e-06 -5.84165 12.0701
8.61675e-06 3.55011e-06 -2.6023 9.63497
6.41324e-06 3.60984e-06 -0.777064 0.781454
1.18123e-05 4.8468e-06 -4.70647 13.3843
0.000372489 0.000910902 -117.342 123.437
1.11626e-05 2.82663e-06 -8.15297 18.7936
1.86133e-05 7.87774e-06 -13.9611 -9.04266
1.65812e-05 0.000889974 -47.6711 63.1608
0.00059619 0.000917547 44.439 40.185
0.000320682 0.000885517 -94.6883 -71.3533
0.000893489 0.000865341 103.858 134.922
0.000694838 0.000869683 31.0521 -180.189
0.000865528 0.000904584 92.049 109.656
1.80604e-05 6.16473e-06 -12.2621 -0.865822
2.01825e-05 5.69553e-06 -13.8225 -7.5756
1.88253e-05 3.85002e-06 -11.5384 4.3666
0.000234438 0.000880798 -187.77 126.801
0.00077604 0.000885167 163.897 172.75
0.000121722 0.000954011 -78.7232 92.9319
0.000252555 0.000913827 -190.77 145.172
4.48956e-05 0.000901459 -91.266 77.5825
0.000938199 0.000885642 115.373 80.6395
0.000304792 0.000886317 -147.679 48.5053
0.000776492 0.000861451 170.678 127.527
0.00012216 0.000861484 -123.764 108.314
0.000949277 0.000858107 108.417 108.868
0.000179518 0.000910625 -149.011 139.425
0.000709314 0.000904459 206.723 113.277
0.000828487 0.000871178 172.499 173.459
0.00018982 0.000957641 -115.132 239.508
0.000334492 0.00096791 -101.452 335.717
0.000243131 0.000875154 -196.819 138.818
7.96093e-05 0.000883719 -124.702 122.785
0.000778896 0.000881236 171.426 164.819
0.000445995 0.00097819 -58.4282 888.569
0.000414785 0.000964503 -89.4927 689.557
0.000653428 0.000972037 95.2142 658.442
0.000900796 0.000911554 116.698 115.556
0.000629826 0.000969819 99.0546 373.736
0.000928426 0.000932291 59.9069 81.9512
0.000325595 0.000970224 -105.813 622.243
0.000265901 0.000946511 -156.572 288.18
0.000919628 0.000934732 81.5411 94.7748
0.00011696 0.000957963 -79.8725 100.964
0.000140599 0.000883243 -114.288 158.697
0.000696297 0.000967926 98.9708 461.792
0.000605338 0.000963991 81.7044 677.756
0.000437894 0.00095655 -71.8764 586.288
0.000900728 0.000909473 122.765 117.897
0.000899473 0.00091079 118.693 120.815
0.00062461 0.000969117 88.3765 482.024
0.000912072 0.000941428 80.8857 82.0815
0.000901343 0.000915293 116.151 113.675
0.00092505 0.000924038 81.96 88.7578
5.05007e-05 0.000941323 -33.2407 58.5766
0.00072365 0.000920788 184.895 128.277
0.000768081 0.000924825 211.342 100.423
0.000162998 0.000937087 -124.44 125.325
0.000914726 0.000943809 78.5142 75.1646
0.000118067 0.000920406 -120.736 98.3832
0.000258681 0.000933233 -175.594 188.196
0.000440954 0.000974825 -67.7189 848.257
0.000791693 0.00094754 157.74 177.121
0.000593664 0.000926776 62.7445 211.093
0.000912284 0.000937412 86.1298 93.1117
0.000173412 0.000948118 -139.768 140.813
0.000451634 0.000976615 -45.1718 881.198
0.000844116 0.000952709 111.872 142.929
0.000903213 0.000909427 122.393 110.113
3.74209e-05 0.000926779 -59.8982 63.1265
0.000936976 0.00088058 113.908 90.6788
0.000100591 0.000971448 -52.4904 100.465
0.000441937 0.000977616 -65.2334 873.174
0.000321398 0.000967126 -102.688 454.395
0.000434579 0.000977065 -75.4587 845.342
0.000346289 0.000976713 -62.401 307.458
0.000427731 0.000975704 -83.9035 841.924
0.000243684 0.00096902 -102.176 228.691
0.000877422 0.000854673 116.461 151.833
0.000930547 0.000894522 118.599 95.799
0.000928488 0.000930625 61.8849 82.3382
2.08805e-05 0.000963005 -62.2021 24.4898
0.00094502 0.00086108 121.089 88.0595
0.000163209 0.000933553 -134.645 136.396
0.000409162 0.000931719 -121.058 286.631
0.000186037 0.000962991 -84.2403 282.637
0.000183973 0.000960681 -95.2234 250.121
0.000120223 0.000955309 -76.3954 96.7649
0.000190675 0.000962108 -94.3479 286.193
0.000664825 0.000970814 101.58 677.82
0.000187824 0.000959359 -97.976 246.31
0.000935252 0.000865292 129.358 111.459
0.000889191 0.000969198 61.7855 118.599
0.000288487 0.000959031 -118.096 484.277
0.000159964 0.000935057 -114.379 129.575
0.00079366 0.000940205 157.982 107.932
0.000699857 0.000967511 96.8603 478.859
0.000184829 0.000961596 -90.596 262.815
0.000872339 0.000850876 124.452 164.135
0.000183926 0.000917201 -146.068 148.686
0.000121611 0.000957504 -79.2691 102.256
1.9315e-05 0.000957477 -72.7012 26.2651
0.000751556 0.000925929 190.309 136.178
0.000780379 0.000958616 125.851 330.285
0.000701709 0.000898072 203.311 134.359
0.000233117 0.000966348 -116.408 263.545
0.000151048 0.00097105 -68.704 235.388
0.000117744 0.000960315 -82.9101 110.43
0.000882242 0.000960329 82.0996 109.189
0.000122612 0.000957275 -78.2141 101.907
0.000756366 0.000966438 101.063 291.812
0.000433162 0.000977042 -80.9379 861.674
4.74863e-05 0.000945897 -29.266 33.8348
4.59796e-05 0.000842268 -150.9 125.532
0.000179721 0.000958573 -111.997 217.733
4.17092e-05 0.000941323 -38.4183 30.2735
0.000564902 0.000952838 53.8304 539.42
3.12635e-05 0.000920659 -56.3293 39.8424
0.000842795 0.000955969 110.926 166.502
0.000144547 0.000969465 -84.3341 221.521
0.000844021 0.000952851 111.666 143.839
3.1023e-05 0.000927413 -33.9916 33.967
0.00014557 0.0009051 -124.743 108.634
0.000266058 0.000948231 -152.616 304.125
3.11712e-05 0.000997359 -11.1281 3.72208
0.000923193 0.00092265 86.3727 92.1369
0.000964928 0.000970811 32.0962 17.8326
0.000608915 0.000963997 83.9524 676.462
0.000963553 0.000969559 34.3299 37.867
4.48989e-05 0.000902149 -92.1764 77.1235
0.00069486 0.000970309 102.676 343.207
0.000760343 0.000966728 101.25 286.104
0.00043095 0.00093363 -95.0398 377.351
0.000716001 0.000892576 208.39 132.902
0.000143833 0.000927015 -113.147 129.554
0.000232309 0.000894061 -191.677 133.177
0.000115745 0.000919602 -112.302 100.235
0.000230607 0.000970551 -133.498 226.609
0.000756428 0.000965561 100.851 363.199
2.23571e-05 0.000958982 -56.2722 28.8141
0.000392884 0.000938153 -132.608 374.048
1.8491e-05 0.00096306 -63.6094 19.1382
0.000920041 0.000920051 98.5856 104.06
0.000226671 0.000895504 -183.308 134.94
0.000925094 0.00087931 126.821 111.546
0.000270201 0.000945461 -150.091 290.29
0.000415876 0.000967022 -88.4141 721.86
0.00047 0.000930441 -38.4562 182.614
0.000574269 0.000934803 66.1191 317.28
0.000430484 0.000976449 -82.7022 850.652
3.16429e-05 0.000925798 -45.7561 30.375
0.000166476 0.000941123 -134.341 120.11
0.000190377 0.000864946 -162.426 147.532
0.000813205 0.000891388 164.842 135.588
0.000880773 0.00096481 66.1271 137.987
0.000114551 0.000954914 -74.7291 93.4369
0.000100642 0.000969784 -56.7606 104.509
0.000719424 0.000919351 209.674 129.217
0.000455567 0.000924853 -28.4648 137.515
0.000609469 0.000972928 74.3569 801.602
0.000425675 0.000960831 -86.9032 635.473
0.0007686 0.000940951 185.008 179.881
0.000757563 0.000983705 88.5876 197.935
0.000307309 0.000884548 -127.158 17.5476
0.000335518 0.00097498 -86.4043 309.517
0.000615015 0.00097247 78.0072 763.387
0.000147075 0.000969729 -81.5786 231.659
0.000885704 0.000968903 57.4821 138.1
3.24241e-05 0.000925624 -48.0119 27.8689
0.000146565 0.000970596 -79.3111 228.659
8.8534e-05 0.000884946 -115.106 137.153
0.000892222 0.000962568 78.069 80.3874
0.000111981 0.000913611 -106.966 121.444
0.000356061 0.000894645 -53.8323 -99.2449
0.000780202 0.000881946 174.209 165.642
3.40037e-05 0.00098665 -2.14776 -3.21506
0.000115274 0.000912675 -112.917 122.923
0.000775806 0.000962472 115.889 387.077
0.000137712 0.000886132 -121.362 167.415
0.000599901 0.000966186 73.7285 708.813
0.000413626 0.000959351 -92.3837 608.465
0.000250454 0.00092026 -182.853 155.994
0.000113931 0.000853204 -122.787 122.665
0.000352294 0.000908788 -113.468 101.934
0.000884891 0.000969654 53.6634 144.585
0.000624861 0.000969536 88.8315 501.79
0.000996125 0.00098767 -5.65015 4.80997
0.00095949 0.000971812 28.0715 52.1645
0.000611529 0.000972279 74.7546 765.275
0.000891255 0.000968075 67.8821 105.441
0.000840412 0.000974562 88.446 87.3114
0.000688968 0.000968727 98.8611 424.056
0.00088905 0.00097005 58.177 117.895
3.08638e-05 0.000983999 -6.27856 5.48653
0.0009611 0.000972939 28.736 38.6543
0.000289134 0.000964825 -104.331 563.469
0.00014373 0.000970311 -81.6441 184.013
0.000949519 0.000973343 14.3817 50.6326
0.000951725 0.000972723 16.2065 60.0229
0.000289209 0.000960494 -116.062 505.765
0.000931896 0.000898735 112.299 100.752
0.000567655 0.000935341 52.7974 318.46
0.000948629 0.000973265 14.6064 52.1385
0.000773071 0.000863171 172.437 129.241
0.000929133 0.000994239 38.0592 9.00411
0.000995638 0.000987366 -2.8679 4.7055
0.00074685 0.000925914 178.655 129.612
0.000114756 0.000848675 -120.228 127.896
0.000762741 0.000932305 186.179 126.024
0.000948397 0.000973646 20.978 46.4088
0.000238178 0.000969362 -110.321 234.531
0.000954703 0.000973234 20.442 58.3816
0.000102059 0.000971467 -50.5413 105.955
0.000995875 0.000988952 -3.83666 2.0576
0.000934623 0.000863423 127.381 109.186
0.000760032 0.000867529 144.877 137.539
0.000926639 0.000925451 77.5824 87.3597
0.000763941 0.000926871 199.131 102.626
0.000140001 0.000879217 -103.352 153.348
0.000997165 0.000989124 -14.3661 4.59541
0.000946227 0.000969157 21.645 54.4678
0.00052357 0.000921266 15.5029 56.0219
0.000938864 0.000893803 120.512 85.4878
0.000105016 0.000970755 -48.7566 119.949
0.000765226 0.000925492 204.278 100.225
0.000171378 0.000957984 -119.519 191.728
0.000289387 0.000966211 -98.7741 574.69
8.3024e-06 0.000919489 -26.0422 31.1774
0.00011813 0.000864262 -117.221 109.523
0.000948591 0.000971076 14.2665 56.1285
0.000116865 0.000919887 -116.865 98.8482
6.72284e-05 0.000990343 -81.1439 42.2359
0.000421781 0.000971095 -89.7521 784.419
0.000112716 0.000958366 -75.8412 106.352
7.58354e-05 0.00097933 -38.2959 71.0822
4.53023e-05 0.000941824 -28.7375 36.4638
0.000708656 0.000890921 204.498 126.779
7.13043e-05 0.000983075 -59.8044 39.3739
2.23784e-05 0.00099082 -14.9548 2.09476
0.000847111 0.000961119 109.342 207.269
0.000880315 0.000969128 48.5814 164.368
0.000953299 0.000970345 24.5636 50.8377
0.000818325 0.000895637 161.308 126.342
0.000403921 0.000936949 -121.751 359.05
4.67902e-05 0.000903208 -96.7873 83.499
0.000332328 0.000972617 -96.3798 308.726
0.000925436 0.000981212 46.9646 55.13
2.088e-05 0.000988762 -18.8631 -1.66028
0.000271232 0.000955216 -114.867 399.203
0.000561619 0.000938598 36.9663 358.517
0.000136791 0.00097118 -63.0873 191.15
6.87855e-05 0.000858541 -149.359 101.348
0.000946196 0.000969023 22.2912 53.9566
0.000105064 0.000971651 -46.5538 118.385
0.000390956 0.00094461 -129.915 436.394
0.000241474 0.000873433 -194.439 145.633
0.000390376 0.000939859 -130.953 388.959
0.000924367 0.000980895 41.9649 75.0706
0.000883119 0.000957039 93.731 97.8867
1.82897e-05 0.000985356 -21.8568 -7.62771
0.000904971 0.000910119 120.29 104.662
0.000440279 0.000955208 -67.7067 573.637
0.000953295 0.000973289 18.3775 57.6239
0.000945274 0.000969703 45.2537 57.6741
0.000238907 0.00096508 -101.398 257.919
2.64692e-05 0.0009279 -45.9257 39.1169
0.000615423 0.000930157 205.286 414.992
0.000928872 0.000978455 46.0591 89.4515
0.000837726 0.000982822 80.6487 79.4136
0.00046733 0.000972759 -32.1373 478.515
0.000945077 0.000968811 47.2599 54.5087
0.000790851 0.000948221 157.827 185.947
0.000995773 0.00099039 0.688089 -1.2028
0.000989531 0.000989325 3.80654 -16.294
0.000919319 0.000980943 36.5929 66.737
7.26448e-05 0.000990273 -64.9039 44.1826
0.000481946 0.000927135 0.369615 76.7901
0.000605847 0.00095247 84.4897 525.877
0.000846261 0.000958375 112.125 184.729
2.02441e-05 0.000982274 -33.5391 0.988005
2.54363e-05 0.000930494 -50.9053 37.9096
0.0008783 0.000958792 96.5839 123.853
0.000462289 0.000971248 -41.8374 528.48
0.000690615 0.000967765 89.5718 471.931
0.000749188 0.000920954 179.839 110.972
0.000181171 0.000910941 -148.882 141.548
0.000878006 0.000970746 45.7706 161.837
0.000448103 0.000955743 -57.1761 579.247
0.000618206 0.000973127 77.6572 806.693
0.000759515 0.000928477 183.87 110.12
0.000983163 0.000984443 10.07 2.01299
0.00039688 0.000945169 -124.582 444.648
0.000911475 0.000839779 142.858 151.518
0.000880034 0.000971778 35.6104 169.171
0.000472781 0.000972134 -22.0824 500.243
0.000164128 0.000940014 -126.846 117.355
0.000608222 0.000966181 82.3979 708.399
0.000653146 0.000972341 95.0117 669.83
0.000987058 0.000984523 0.0823736 -1.62957
0.00069054 0.000968771 97.6054 422.71
0.000600826 0.000952584 76.907 527.029
2.06266e-05 0.000984373 -29.2669 -5.04443
0.000324373 0.000968467 -106.792 525.723
0.000914941 0.000994809 45.564 21.9564
0.000468982 0.000970325 -24.9578 659.699
0.000417609 0.000962987 -87.1111 662.149
0.000267569 0.000893481 -188.331 128.731
0.000986829 0.00094694 16.0369 32.8139
0.00075708 0.000919986 186.901 114.013
0.000925387 0.000930345 76.0872 88.1317
2.34612e-05 0.00099236 -13.0746 2.87808
6.63068e-05 0.000994332 -65.3741 27.7811
3.63696e-05 0.000897799 -86.2634 68.034
0.000259805 0.000936836 -175.067 209.081
0.000921513 0.000920577 93.8111 98.8768
0.000989942 0.000947413 20.4825 33.4393
0.000842276 0.000955596 111.169 163.964
5.67014e-05 0.000849719 -115.566 130.98
0.000595469 0.000923178 74.2058 235.184
0.000265062 0.000948358 -154.988 302.847
0.000704898 0.0008875 195.777 85.6023
0.000899903 0.000908873 126.848 120.575
0.000875478 0.000968986 66.1545 133.777
0.000883232 0.000971296 44.3064 154.686
0.000763418 0.000966192 99.9379 304.966
0.000453726 0.000972496 -47.3342 689.629
0.00090551 0.000910362 119.484 103.118
0.00091907 0.000980301 34.3948 87.6386
0.00076679 0.000945218 167.602 220.248
2.05623e-05 0.000991243 -15.7173 -0.178169
0.000141543 0.000969482 -73.2624 207.001
0.000254698 0.000929919 -181.38 167.737
0.000822167 0.000901643 151.961 111.413
0.00017963 0.000965557 -95.5542 302.329
5.3224e-05 0.000938972 -68.6656 81.2796
0.000617216 0.000972696 78.9831 762.468
0.000915575 0.000982238 38.0354 44.0839
0.00014066 0.000970089 -78.9804 159.559
0.000914851 0.000980684 34.6666 67.3313
0.000144707 0.000925666 -118.208 131.792
0.000880414 0.000972108 34.2941 163.621
0.000320268 0.00096808 -110.054 527.328
0.000916635 0.000981363 36.0582 52.5078
0.000772093 0.000941431 179.445 167.211
0.000662933 0.000971445 98.9136 677.363
0.000563414 0.000912862 -0.301388 -25.0929
6.01567e-05 0.000878708 -129.322 117.4
1.86953e-05 0.000992072 -13.2354 -3.86178
2.08448e-05 0.000982087 -33.0023 2.07439
0.000685343 0.000968075 103.976 459.968
0.000687983 0.000981091 95.2776 274.414
0.000923991 0.000915649 97.4745 88.567
0.000389878 0.000926364 -130.318 238.448
0.000135063 0.000875667 -106.459 149.689
0.000984448 0.000985314 6.96862 -3.00927
0.000985893 0.000983681 2.09225 3.55222
0.000604839 0.000947728 82.3556 478.407
0.000776976 0.000956733 133.68 315.052
0.000264397 0.000947781 -157.757 295.958
0.000450862 0.000972385 -57.0944 684.029
4.39294e-05 0.000944073 -34.6464 32.9492
0.000331178 0.000966517 -107.916 344.973
0.000629858 0.000969198 98.62 516.588
0.000116091 0.000857414 -116.684 122.943
0.000436741 0.000974869 -76.4932 846.72
0.00091116 0.000938959 85.8967 89.3163
1.91417e-05 0.000981962 -34.559 0.838518
0.000918792 0.000923616 96.365 106.579
0.000916623 0.00099154 40.0153 32.3644
0.000628781 0.000968757 98.5414 408.168
0.000778682 0.000888985 167.788 178.703
0.000711161 0.000910796 206.063 113.486
0.000296124 0.000928351 -142.657 216.465
4.36369e-05 0.000939885 -35.138 37.0881
0.000170222 0.000955677 -124.024 173.761
0.000327448 0.000969723 -102.097 580.52
0.000929641 0.000886437 116.547 79.3208
0.000892482 0.000837234 130.862 153.091
0.000621593 0.000917508 179.078 206.068
0.00040335 0.000962236 -104.652 646.795
1.14293e-05 0.000991623 0.342247 -13.5046
0.000175324 0.000951517 -137.655 153.47
3.03875e-05 0.000919804 -51.5229 39.7577
0.000167493 0.00094238 -135.648 120.26
0.000908019 0.000876644 133.514 114.116
0.000907122 0.000979476 46.7728 70.2325
0.000995795 0.000990767 1.87315 -1.4867
1.43469e-05 0.000989145 -1.01853 -10.6881
0.000769011 0.000985379 96.2329 177.118
7.35734e-06 0.000992082 1.30107 -6.2573
0.00098802 0.00099805 9.46656 -8.79268
0.000694737 0.000968676 100.985 387.613
0.000456889 0.00097273 -36.9469 697.87
0.000908747 0.00094127 90.3245 86.1528
0.000715348 0.000915551 208.251 118.963
6.43918e-06 0.000961534 -5.45905 25.1418
0.000430683 0.000955015 -93.4233 570.102
0.000845368 0.000951514 114.358 135.716
0.000593031 0.00096535 56.0105 696.934
0.000889327 0.00090649 111.938 99.7488
0.000848411 0.000958328 109.99 179.55
3.94701e-05 0.000900934 -79.7404 61.8519
9.11335e-06 0.000992189 0.861393 -10.7987
0.000890446 0.000913809 123.355 120.608
0.000103542 0.00097472 -38.2529 112.537
3.17436e-05 0.000901196 -107.8 66.3397
0.000408606 0.000957751 -97.3299 585.943
0.000339258 0.000913502 -156.909 180.602
0.000287693 0.000912796 -188.66 145.645
0.000296238 0.000923743 -151.061 189.109
0.000896714 0.000916578 122.341 125.034
0.000761204 0.00096936 103.349 224.452
0.000600709 0.000951629 76.0238 517.62
7.70369e-06 0.000985519 7.09445 -4.64441
0.000107818 0.000958066 -77.1216 111.576
6.9642e-05 0.000986046 -71.0176 36.0856
0.000171368 0.000908642 -147.789 127.552
1.21371e-05 0.000989352 5.64402 -12.8983
0.000190432 0.000864479 -162.93 149.47
8.45828e-06 0.000983444 5.34658 -6.02214
0.000585936 0.000910338 -10.9343 -118.094
6.78658e-05 0.000978943 -50.177 72.4241
0.000873125 0.000840482 142.985 175.786
0.000608496 0.000946339 92.2358 461.997
0.00027287 0.000947795 -146.848 324.825
0.000625714 0.00096916 93.6159 546.553
0.000139361 0.000970143 -75.9522 176.279
0.000776313 0.000958105 129.805 334.693
0.000139264 0.00087217 -97.7783 127.411
0.000986888 0.000983794 -1.56476 3.32499
0.000667288 0.000889507 101.129 -63.0713
0.000236079 0.000969953 -117.092 230.47
0.000657826 0.00097186 94.3141 672.239
0.000284322 0.000908933 -189.916 138.312
0.000329134 0.000966226 -105.475 369.729
0.000778966 0.000958558 126.736 332.629
0.000790939 0.000946897 160.017 172.008
0.00099455 0.000943396 0.560043 33.7559
0.000945959 0.000973114 46.5157 60.7705
0.0002736 0.00095278 -122.525 373.685
0.000482856 0.000931107 0.563979 171.391
0.000710813 0.000906463 205.604 110.495
0.000878895 0.000967484 60.8137 157.952
0.000169761 0.000955084 -125.565 172.989
0.000579006 0.000913257 0.445346 -75.9891
0.000911623 0.000946356 75.279 73.9136
0.000463726 0.000973229 -37.1872 467.656
0.000790754 0.000945065 161.61 153.833
4.99014e-06 0.000962977 1.75421 21.4261
0.000984082 0.000985587 7.41305 -3.3906
8.61791e-05 0.000883995 -117.313 134.995
0.000774164 0.000863529 171.35 130.856
0.000957621 0.000846336 156.954 102.361
8.13694e-05 0.000884224 -122.022 126.074
0.000845274 0.000956633 111.132 170.666
0.0002539 0.000928678 -182.261 162.524
6.70112e-05 0.000987829 -81.8878 37.4707
0.000944495 0.000973463 55.8415 77.6766
0.000427582 0.000953398 -97.2692 553.233
0.000954722 0.000845851 135.71 110.829
0.000318141 0.000969444 -112.295 594.656
0.000767476 0.000926512 208.682 103.534
0.000136401 0.000900502 -123.797 135.954
0.00014374 0.000927167 -112.638 129.291
0.000241364 0.000964745 -99.2836 252.244
0.000426395 0.000953462 -97.7622 552.797
0.000286654 0.000918666 -183.423 164.612
0.000987942 0.000993554 10.0923 -6.1792
6.19172e-05 0.000982577 -54.3537 89.1101
0.000138977 0.000970084 -75.8764 172.329
0.000272736 0.000950894 -130.78 349.936
6.65005e-06 0.000991286 3.5948 -4.09249
0.000601295 0.000949436 75.4408 496.623
0.000938538 0.00097307 48.0544 86.857
0.000913622 0.000944399 77.7484 75.2757
1.48553e-05 0.00096185 -6.85247 28.2338
0.000977999 0.000989544 8.27986 7.3017
0.000136512 0.000970852 -66.7721 179.616
0.000140969 0.000969151 -69.1565 205.367
0.000788473 0.000941959 162.737 131.302
0.000395724 0.000946635 -124.498 458.136
0.000298356 0.00093764 -129.609 284.171
0.000934172 0.000862008 127.314 106.947
0.000286197 0.000917012 -185.528 157.588
0.000695982 0.000970256 102.662 343.839
4.95505e-05 0.000947007 -29.2909 33.7422
1.0632e-05 0.000959611 -17.7295 30.3703
0.000939899 0.000973808 49.3382 90.291
0.000166242 0.000938034 -143.357 132.908
0.000777248 0.000953755 140.859 274.035
0.000605365 0.0009539 84.0144 541.71
0.000540961 0.000922846 15.4928 109.88
0.000780929 0.000881279 175.949 163.805
0.000920537 0.000885628 109.231 77.6908
0.000175617 0.00095435 -132.275 170.168
0.000550936 0.000926702 2.94689 160.849
0.000981568 0.000983921 16.838 4.90307
0.000930246 0.000832913 141.152 135.209
0.000686401 0.000970325 108.492 361.369
1.4836e-05 0.000984443 -0.780244 -8.11033
0.000791567 0.000860999 161.881 145.364
6.02714e-05 0.000877607 -131.689 115.777
0.000905878 0.00097922 49.3223 70.4244
0.000470437 0.000983173 -32.8547 418.227
0.000173557 0.000960216 -119.941 219.827
0.000912687 0.000985611 45.9292 35.6971
0.000938364 0.000893455 120.487 84.9845
0.000105889 0.00097816 -33.0023 76.9538
0.000132223 0.000923395 -119.497 102.073
0.000742656 0.000927202 164.469 137.902
0.000906132 0.000947243 80.6726 81.0149
0.000926813 0.000836814 153.895 125.506
0.00068432 0.000970524 112.225 336.822
0.000767089 0.0009393 187.328 171.64
0.000269426 0.000945602 -150.234 290.398
0.000141932 0.000969987 -75.5083 207.319
0.000136904 0.000876783 -103.844 151.293
0.000110873 0.00091604 -98.339 115.586
0.000758512 0.000926444 191.19 108.296
0.000788323 0.000944492 160.071 153.36
0.000136 0.000868785 -100.391 116.919
0.000875699 0.000959512 97.3558 139.111
0.000929348 0.00089692 114.866 104.276
5.99306e-05 0.000983715 -42.5944 116.799
0.000759243 0.000925036 187.624 103.147
0.000976107 0.000992086 11.1315 5.59059
0.000881539 0.000961266 79.0271 115.374
0.000179421 0.000966435 -94.2847 312.367
0.000314349 0.000968505 -109.18 567.865
3.21896e-05 0.000901631 -106.133 64.5256
0.000983794 0.000993763 10.6742 0.648413
0.000940199 0.000845993 122.97 115.923
6.33645e-06 0.000990531 6.01773 -2.90285
4.1975e-05 0.000944008 -38.7117 32.3631
1.73964e-05 0.000961172 -22.9417 31.8142
0.000993854 0.000996864 1.15912 -13.1724
0.000228767 0.000969175 -132.932 252.823
0.00098154 0.000996703 13.1774 2.65652
0.000138408 0.000970699 -65.3641 191.961
0.000759892 0.00097891 95.5797 203.967
0.000847005 0.000951253 116.143 132.92
3.25104e-05 0.00094348 -52.5805 44.3996
0.000881134 0.000966382 59.9074 145.443
5.2815e-05 0.000937724 -49.5981 59.2063
0.000906937 0.000943252 91.2863 85.1279
2.01884e-05 0.000912795 -94.7614 19.358
0.000219023 0.000869783 -165.586 146.878
6.01175e-05 0.000983312 -56.2347 70.1975
0.00098125 0.000982446 19.701 10.8376
0.000452087 0.000971209 -51.9296 616.025
6.21812e-05 0.000982317 -62.2222 77.5043
0.000613147 0.000969969 65.4299 518.098
0.000978551 0.000993538 11.119 4.3193
0.000769032 0.000968305 106.05 288.077
0.000925307 0.000930851 76.4463 88.2889
0.000830275 0.000958123 117.023 203.375
0.000135115 0.000925855 -107.048 111.834
0.00078304 0.000891671 169.991 190.451
0.000618948 0.00096877 79.3081 418.164
0.000924672 0.000919193 89.3713 89.4854
0.000811718 0.000897049 146.463 127.556
0.000931612 0.00089819 113.605 101.196
0.000177368 0.000894137 -154.413 120.78
2.91019e-05 0.000923354 -37.7598 41.711
2.6794e-05 0.000987719 -10.2593 2.51571
0.00041098 0.0009648 -92.0146 688.96
0.00017667 0.000951004 -138.186 150.437
0.000256 0.000933749 -174.95 187.887
0.000166568 0.000914601 -133.793 131.908
0.000140528 0.000901031 -122.939 128.277
0.000712238 0.000910952 205.623 114.78
0.000615234 0.000972108 76.9487 778.332
0.000102994 0.000970195 -52.0269 116.074
0.000177441 0.000944311 -145.292 124.49
3.07475e-05 0.000929016 -31.9749 29.5076
0.000715112 0.0009039 202.275 128.881
0.000759264 0.000943882 157.182 218.011
0.000775371 0.000879168 165.881 170.906
0.00098067 0.000993495 10.4919 4.47316
0.000840913 0.000960184 113.016 202.582
0.000861427 0.000874514 118.549 125.403
0.000910161 0.000995442 50.645 19.3935
0.000591091 0.000955653 60.9912 566.111
0.000778847 0.0009603 121.717 351.866
0.000430039 0.000956763 -92.3292 583.066
0.000559736 0.00094043 36.6702 381.17
0.000896908 0.000909591 125.688 123.869
0.000138654 0.000929543 -96.3147 126.291
0.000819313 0.000908402 135.995 129.994
0.000879842 0.00097233 33.3094 141.688
0.000816648 0.000886602 179.643 139.648
0.000457563 0.000972769 -35.4537 706.032
0.000140623 0.000894873 -105.94 129.515
0.000176456 0.000960835 -113.285 234.693
0.000979826 0.000983356 25.0813 8.24522
0.000228442 0.000892597 -187.654 133.666
1.77083e-06 0.000991658 7.97424 5.42191
7.48926e-05 0.000854027 -143.525 108.65
0.000921895 0.000883209 115.756 80.9949
0.00072016 0.000877389 168.422 92.1743
1.75446e-06 0.000989502 12.3453 6.58224
0.000297884 0.000937825 -129.068 284.202
0.000978364 0.000982457 26.6674 14.8422
0.000315699 0.000968879 -111.029 580.685
0.000139966 0.000969998 -63.814 206.053
0.000573062 0.000941551 68.2741 416.469
0.000909879 0.000921469 100.644 110.535
0.000236854 0.000877886 -190.478 130.888
1.95907e-05 0.000920139 -89.186 22.2135
0.000340536 0.000913811 -157.384 182.75
0.00029195 0.000960481 -116.291 507.723
0.000273048 0.000954467 -115.084 394.242
0.000945165 0.000970005 51.7334 60.1891
1.64377e-05 0.000893927 -45.1645 67.9926
0.000111091 0.000954501 -76.7397 96.4945
0.000239357 0.000970079 -108.697 224.426
0.000910084 0.000980367 38.6469 69.1393
0.000132074 0.0009698 -48.7302 191.956
0.000460358 0.000972146 -33.9304 697.621
0.00090972 0.00085346 129.531 129.14
0.000995563 0.000994103 -1.44531 -4.93251
0.000765604 0.000944031 170.715 214.411
0.000773468 0.00088015 161.062 174.606
0.000937728 0.000847492 140.834 101.612
3.12163e-05 0.000925958 -39.2704 34.7439
0.000400254 0.000962405 -110.766 647.077
0.000853827 0.000952501 95.7788 120.404
0.000905955 0.000983164 46.385 39.8942
0.000666434 0.000969056 104.517 661.512
0.000902722 0.000981037 49.971 48.4625
0.000256885 0.000928167 -183.373 162.75
6.35918e-05 0.000979641 -52.788 85.2173
0.000709418 0.000906544 206.389 107.76
3.89086e-05 0.000942025 -41.9521 33.2562
4.01667e-05 0.000938731 -37.8654 32.284
0.000893726 0.000859847 118.31 138.447
0.000357787 0.000907399 -98.3812 69.034
0.000255661 0.000940373 -173.285 223.838
0.000773661 0.000959351 123.783 357.029
0.000266914 0.000892895 -187.692 126.581
1.80001e-05 0.000932412 -54.4108 39.1194
0.000878139 0.00096758 61.8192 160.106
0.000134068 0.000921324 -128.382 105.261
3.95112e-05 0.000941021 -41.1244 31.1735
0.000288413 0.000960516 -114.536 504.826
0.000108479 0.000961018 -75.0298 117.919
2.86122e-06 0.000991778 6.05838 3.16044
0.000172149 0.000946604 -141.801 135.504
0.00092632 0.000933121 69.8306 84.6143
0.000601184 0.000967883 74.0684 728.499
0.000161141 0.000937189 -115.259 122.386
0.000240541 0.0009687 -104.976 237.34
0.000857554 0.00084848 158.889 185.032
0.000877178 0.000959334 96.234 131.28
0.000966767 0.000990817 16.4794 14.2522
0.000909921 0.000916416 102.421 101.501
0.000817433 0.00089967 154.612 127.306
0.000835205 0.000950633 129.956 143.121
0.00011637 0.000913297 -113.392 120.872
7.4356e-06 0.000930396 -29.1073 38.4067
0.000816164 0.000901934 146.756 127.173
0.000432746 0.000971903 -86.0761 800.746
0.000768798 0.000958544 120.768 363.202
3.45303e-05 0.000940861 -51.0296 39.809
0.00075747 0.000926722 197.896 114.056
0.00083472 0.00096117 111.944 222.118
0.000897991 0.000991882 52.819 35.3775
0.000176046 0.000959912 -116.251 223.557
0.000754764 0.000966045 102.957 305.694
0.000380577 0.000906572 -84.0993 4.86688
0.000143753 0.000901818 -121.252 118.725
0.000816609 0.000887823 177.151 136.762
0.000974153 0.000983477 22.2028 19.1881
0.000260174 0.000946418 -167.558 276.29
0.000164172 0.000938646 -128.005 122.255
0.000426925 0.000958888 -89.6921 610.44
0.000695653 0.000916374 183.924 165.664
0.000972771 0.00098255 22.2444 27.5675
0.000164968 0.00095556 -111.04 168.122
0.000826714 0.000982771 88.1935 99.8993
0.000756053 0.000936437 162.186 168.319
0.00078624 0.000860142 166.147 135.378
0.000881704 0.000968758 51.5103 156.464
0.00038731 0.000908226 -85.1089 -34.9478
2.89685e-05 0.000846813 -221.069 81.7911
0.000207356 0.000887991 -154.642 128.495
0.000328801 0.000974069 -100.931 301.651
0.000234993 0.000979442 -112.817 188.195
5.96768e-05 0.000877526 -131.857 114.419
0.000608953 0.000969731 59.961 395.97
0.00095668 0.000830289 193.999 116.237
0.000466947 0.000927789 -38.231 128.054
0.000832205 0.000962207 110.7 235.83
0.000571744 0.000943939 67.4971 446.942
0.000429646 0.000975578 -86.1216 848.842
0.00099471 0.000994406 6.17204 -5.6446
0.000387573 0.000938454 -132.017 374.25
6.22637e-05 0.000982151 -46.8565 100.856
0.000908635 0.000923968 104.449 110.577
0.000595677 0.000952991 61.983 537.14
0.000308374 0.000967337 -96.4446 499.121
0.000881133 0.000965657 62.4803 141.216
0.00013544 0.000868565 -100.909 115.56
0.000230426 0.000966977 -101.311 331.015
0.000466247 0.000925759 -34.4806 52.046
0.000164358 0.000935458 -139.12 135.86
0.000944789 0.000967255 48.7932 48.2041
0.000132648 0.000967919 -52.8162 177.872
0.000253432 0.000927355 -184.105 157.075
0.00029477 0.000896565 -182.266 129.442
0.000308532 0.00096939 -96.7169 595.671
0.000966636 0.000985124 17.6802 12.9965
0.000111228 0.000958005 -75.6211 107.107
6.01688e-05 0.000983862 -65.3842 44.3704
0.000717484 0.000922685 198.77 140.788
0.000944551 0.000965939 46.9291 42.7549
0.000168214 0.000910161 -143.075 126.363
0.000948782 0.000836581 126.578 141.223
0.000559575 0.000916775 -7.28071 35.4086
0.000460181 0.000925713 -27.93 97.1453
0.000345533 0.000911944 -139.049 157.295
0.000684603 0.000968235 110.672 433.38
8.37943e-05 0.000883935 -119.486 131.054
0.000652366 0.000973118 95.5244 699.939
0.00043764 0.000976958 -73.1365 869.466
0.000673886 0.000977636 94.6463 309.427
0.00060478 0.000972647 72.2007 788.277
0.000182054 0.000963018 -95.9716 279.376
0.000648016 0.000974327 105.367 749.567
0.000791428 0.000942603 164.067 129.81
0.000945891 0.000973147 47.1773 61.0028
0.00013655 0.000871709 -100.644 125.917