title="iDensity"
variables = "x","y","num"
zone i=100,j=100,f=point
1 1 0
2 1 0
3 1 0
4 1 0
5 1 0
6 1 0
7 1 0
8 1 0
9 1 0
10 1 0
11 1 0
12 1 0
13 1 0
14 1 0
15 1 0
16 1 0
17 1 0
18 1 0
19 1 0
20 1 0
21 1 0
22 1 0
23 1 0
24 1 0
25 1 0
26 1 0
27 1 0
28 1 0
29 1 1e+14
30 1 0
31 1 0
32 1 0
33 1 0
34 1 0
35 1 0
36 1 0
37 1 0
38 1 0
39 1 0
40 1 0
41 1 0
42 1 0
43 1 0
44 1 0
45 1 0
46 1 0
47 1 0
48 1 0
49 1 0
50 1 0
51 1 0
52 1 1e+14
53 1 0
54 1 0
55 1 0
56 1 0
57 1 0
58 1 0
59 1 0
60 1 0
61 1 0
62 1 0
63 1 0
64 1 0
65 1 0
66 1 0
67 1 1e+14
68 1 0
69 1 0
70 1 0
71 1 0
72 1 0
73 1 0
74 1 0
75 1 0
76 1 1e+14
77 1 0
78 1 0
79 1 1e+14
80 1 0
81 1 0
82 1 0
83 1 0
84 1 0
85 1 0
86 1 0
87 1 0
88 1 0
89 1 0
90 1 0
91 1 0
92 1 0
93 1 0
94 1 0
95 1 0
96 1 0
97 1 0
98 1 0
99 1 0
100 1 0
1 2 0
2 2 0
3 2 0
4 2 0
5 2 0
6 2 0
7 2 0
8 2 0
9 2 0
10 2 0
11 2 0
12 2 0
13 2 1e+14
14 2 0
15 2 0
16 2 0
17 2 0
18 2 0
19 2 0
20 2 0
21 2 0
22 2 0
23 2 0
24 2 0
25 2 1e+14
26 2 0
27 2 2e+14
28 2 1e+14
29 2 0
30 2 1e+14
31 2 1e+14
32 2 0
33 2 0
34 2 0
35 2 0
36 2 0
37 2 2e+14
38 2 0
39 2 0
40 2 0
41 2 0
42 2 0
43 2 0
44 2 0
45 2 1e+14
46 2 1e+14
47 2 0
48 2 2e+14
49 2 0
50 2 1e+14
51 2 0
52 2 0
53 2 0
54 2 4e+14
55 2 1e+14
56 2 1e+14
57 2 3e+14
58 2 2e+14
59 2 0
60 2 0
61 2 0
62 2 0
63 2 1e+14
64 2 1e+14
65 2 0
66 2 0
67 2 0
68 2 1e+14
69 2 0
70 2 0
71 2 0
72 2 0
73 2 0
74 2 1e+14
75 2 0
76 2 0
77 2 0
78 2 1e+14
79 2 0
80 2 0
81 2 0
82 2 0
83 2 0
84 2 0
85 2 0
86 2 0
87 2 0
88 2 0
89 2 0
90 2 0
91 2 0
92 2 0
93 2 0
94 2 0
95 2 0
96 2 0
97 2 0
98 2 0
99 2 0
100 2 0
1 3 0
2 3 0
3 3 0
4 3 0
5 3 0
6 3 0
7 3 0
8 3 0
9 3 0
10 3 0
11 3 0
12 3 0
13 3 0
14 3 0
15 3 0
16 3 0
17 3 0
18 3 0
19 3 1e+14
20 3 0
21 3 0
22 3 2e+14
23 3 3e+14
24 3 2e+14
25 3 2e+14
26 3 1e+14
27 3 0
28 3 0
29 3 1e+14
30 3 1e+14
31 3 2e+14
32 3 2e+14
33 3 0
34 3 0
35 3 1e+14
36 3 0
37 3 1e+14
38 3 0
39 3 1e+14
40 3 1e+14
41 3 2e+14
42 3 1e+14
43 3 0
44 3 1e+14
45 3 0
46 3 1e+14
47 3 1e+14
48 3 0
49 3 1e+14
50 3 0
51 3 0
52 3 0
53 3 1e+14
54 3 0
55 3 1e+14
56 3 1e+14
57 3 2e+14
58 3 0
59 3 0
60 3 0
61 3 0
62 3 1e+14
63 3 0
64 3 1e+14
65 3 3e+14
66 3 1e+14
67 3 0
68 3 1e+14
69 3 1e+14
70 3 1e+14
71 3 0
72 3 2e+14
73 3 1e+14
74 3 0
75 3 1e+14
76 3 1e+14
77 3 1e+14
78 3 0
79 3 1e+14
80 3 1e+14
81 3 0
82 3 2e+14
83 3 0
84 3 0
85 3 1e+14
86 3 0
87 3 1e+14
88 3 0
89 3 2e+14
90 3 1e+14
91 3 0
92 3 1e+14
93 3 0
94 3 0
95 3 0
96 3 0
97 3 0
98 3 0
99 3 0
100 3 0
1 4 0
2 4 0
3 4 0
4 4 0
5 4 0
6 4 0
7 4 0
8 4 0
9 4 0
10 4 0
11 4 0
12 4 0
13 4 0
14 4 0
15 4 0
16 4 0
17 4 0
18 4 1e+14
19 4 0
20 4 1e+14
21 4 0
22 4 1e+14
23 4 0
24 4 1e+14
25 4 1e+14
26 4 1e+14
27 4 1e+14
28 4 0
29 4 1e+14
30 4 0
31 4 1e+14
32 4 1e+14
33 4 0
34 4 0
35 4 2e+14
36 4 1e+14
37 4 1e+14
38 4 2e+14
39 4 1e+14
40 4 0
41 4 1e+14
42 4 3e+14
43 4 1e+14
44 4 1e+14
45 4 1e+14
46 4 5e+14
47 4 2e+14
48 4 0
49 4 2e+14
50 4 0
51 4 1e+14
52 4 1e+14
53 4 0
54 4 1e+14
55 4 0
56 4 2e+14
57 4 2e+14
58 4 1e+14
59 4 3e+14
60 4 0
61 4 3e+14
62 4 1e+14
63 4 3e+14
64 4 1e+14
65 4 1e+14
66 4 0
67 4 2e+14
68 4 0
69 4 0
70 4 1e+14
71 4 2e+14
72 4 3e+14
73 4 0
74 4 2e+14
75 4 3e+14
76 4 1e+14
77 4 0
78 4 1e+14
79 4 0
80 4 1e+14
81 4 1e+14
82 4 0
83 4 0
84 4 0
85 4 0
86 4 0
87 4 0
88 4 1e+14
89 4 1e+14
90 4 0
91 4 0
92 4 0
93 4 0
94 4 0
95 4 0
96 4 0
97 4 0
98 4 0
99 4 0
100 4 0
1 5 0
2 5 0
3 5 0
4 5 0
5 5 0
6 5 0
7 5 0
8 5 0
9 5 0
10 5 0
11 5 0
12 5 0
13 5 0
14 5 1e+14
15 5 1e+14
16 5 0
17 5 2e+14
18 5 0
19 5 0
20 5 1e+14
21 5 0
22 5 2e+14
23 5 1e+14
24 5 0
25 5 0
26 5 1e+14
27 5 0
28 5 1e+14
29 5 0
30 5 3e+14
31 5 0
32 5 3e+14
33 5 1e+14
34 5 0
35 5 1e+14
36 5 0
37 5 1e+14
38 5 4e+14
39 5 1e+14
40 5 2e+14
41 5 1e+14
42 5 1e+14
43 5 3e+14
44 5 2e+14
45 5 1e+14
46 5 1e+14
47 5 1e+14
48 5 3e+14
49 5 1e+14
50 5 0
51 5 1e+14
52 5 2e+14
53 5 0
54 5 3e+14
55 5 1e+14
56 5 0
57 5 1e+14
58 5 4e+14
59 5 1e+14
60 5 1e+14
61 5 1e+14
62 5 1e+14
63 5 2e+14
64 5 4e+14
65 5 1e+14
66 5 3e+14
67 5 1e+14
68 5 2e+14
69 5 1e+14
70 5 3e+14
71 5 1e+14
72 5 4e+14
73 5 0
74 5 1e+14
75 5 1e+14
76 5 2e+14
77 5 2e+14
78 5 0
79 5 0
80 5 1e+14
81 5 0
82 5 0
83 5 1e+14
84 5 0
85 5 0
86 5 0
87 5 0
88 5 1e+14
89 5 0
90 5 0
91 5 0
92 5 0
93 5 0
94 5 0
95 5 0
96 5 1e+14
97 5 0
98 5 0
99 5 0
100 5 0
1 6 0
2 6 0
3 6 0
4 6 0
5 6 0
6 6 0
7 6 0
8 6 0
9 6 0
10 6 0
11 6 0
12 6 0
13 6 1e+14
14 6 0
15 6 1e+14
16 6 0
17 6 2e+14
18 6 0
19 6 2e+14
20 6 0
21 6 1e+14
22 6 1e+14
23 6 0
24 6 0
25 6 0
26 6 0
27 6 0
28 6 3e+14
29 6 1e+14
30 6 0
31 6 0
32 6 1e+14
33 6 2e+14
34 6 3e+14
35 6 3e+14
36 6 0
37 6 4e+14
38 6 2e+14
39 6 1e+14
40 6 1e+14
41 6 1e+14
42 6 6e+14
43 6 3e+14
44 6 2e+14
45 6 1e+14
46 6 1e+14
47 6 3e+14
48 6 0
49 6 0
50 6 0
51 6 2e+14
52 6 1e+14
53 6 2e+14
54 6 4e+14
55 6 2e+14
56 6 1e+14
57 6 1e+14
58 6 3e+14
59 6 3e+14
60 6 1e+14
61 6 6e+14
62 6 3e+14
63 6 3e+14
64 6 2e+14
65 6 7e+14
66 6 1e+14
67 6 1e+14
68 6 0
69 6 1e+14
70 6 1e+14
71 6 1e+14
72 6 1e+14
73 6 1e+14
74 6 2e+14
75 6 1e+14
76 6 2e+14
77 6 0
78 6 1e+14
79 6 0
80 6 1e+14
81 6 0
82 6 2e+14
83 6 1e+14
84 6 0
85 6 2e+14
86 6 0
87 6 0
88 6 0
89 6 0
90 6 0
91 6 0
92 6 0
93 6 0
94 6 0
95 6 0
96 6 0
97 6 0
98 6 0
99 6 0
100 6 0
1 7 0
2 7 0
3 7 0
4 7 0
5 7 0
6 7 0
7 7 0
8 7 0
9 7 0
10 7 1e+14
11 7 0
12 7 1e+14
13 7 0
14 7 1e+14
15 7 1e+14
16 7 0
17 7 0
18 7 0
19 7 1e+14
20 7 0
21 7 1e+14
22 7 4e+14
23 7 1e+14
24 7 2e+14
25 7 1e+14
26 7 1e+14
27 7 2e+14
28 7 1e+14
29 7 1e+14
30 7 0
31 7 3e+14
32 7 4e+14
33 7 2e+14
34 7 3e+14
35 7 1e+14
36 7 2e+14
37 7 3e+14
38 7 5e+14
39 7 2e+14
40 7 4e+14
41 7 4e+14
42 7 1e+14
43 7 3e+14
44 7 2e+14
45 7 0
46 7 3e+14
47 7 2e+14
48 7 2e+14
49 7 3e+14
50 7 2e+14
51 7 1e+14
52 7 0
53 7 2e+14
54 7 3e+14
55 7 2e+14
56 7 1e+14
57 7 0
58 7 2e+14
59 7 1e+14
60 7 3e+14
61 7 6e+14
62 7 3e+14
63 7 3e+14
64 7 1e+14
65 7 6e+14
66 7 5e+14
67 7 4e+14
68 7 3e+14
69 7 6e+14
70 7 1e+14
71 7 1e+14
72 7 1e+14
73 7 3e+14
74 7 0
75 7 0
76 7 2e+14
77 7 1e+14
78 7 4e+14
79 7 0
80 7 3e+14
81 7 0
82 7 0
83 7 2e+14
84 7 1e+14
85 7 2e+14
86 7 1e+14
87 7 1e+14
88 7 1e+14
89 7 0
90 7 0
91 7 0
92 7 0
93 7 0
94 7 0
95 7 0
96 7 0
97 7 0
98 7 0
99 7 0
100 7 0
1 8 0
2 8 0
3 8 0
4 8 0
5 8 0
6 8 0
7 8 1e+14
8 8 0
9 8 0
10 8 1e+14
11 8 1e+14
12 8 0
13 8 0
14 8 2e+14
15 8 1e+14
16 8 1e+14
17 8 0
18 8 1e+14
19 8 1e+14
20 8 1e+14
21 8 2e+14
22 8 0
23 8 4e+14
24 8 0
25 8 1e+14
26 8 1e+14
27 8 1e+14
28 8 2e+14
29 8 0
30 8 2e+14
31 8 4e+14
32 8 4e+14
33 8 1e+14
34 8 2e+14
35 8 4e+14
36 8 3e+14
37 8 1e+14
38 8 2e+14
39 8 3e+14
40 8 1e+14
41 8 0
42 8 0
43 8 4e+14
44 8 2e+14
45 8 1e+14
46 8 2e+14
47 8 2e+14
48 8 0
49 8 1e+14
50 8 0
51 8 6e+14
52 8 0
53 8 2e+14
54 8 2e+14
55 8 2e+14
56 8 0
57 8 4e+14
58 8 3e+14
59 8 1e+14
60 8 1e+14
61 8 2e+14
62 8 4e+14
63 8 4e+14
64 8 0
65 8 3e+14
66 8 2e+14
67 8 4e+14
68 8 3e+14
69 8 1e+14
70 8 1e+14
71 8 1e+14
72 8 1e+14
73 8 4e+14
74 8 2e+14
75 8 2e+14
76 8 4e+14
77 8 2e+14
78 8 2e+14
79 8 0
80 8 1e+14
81 8 0
82 8 1e+14
83 8 0
84 8 0
85 8 0
86 8 1e+14
87 8 0
88 8 1e+14
89 8 0
90 8 1e+14
91 8 0
92 8 0
93 8 0
94 8 0
95 8 0
96 8 0
97 8 0
98 8 0
99 8 0
100 8 0
1 9 0
2 9 0
3 9 0
4 9 0
5 9 0
6 9 0
7 9 0
8 9 0
9 9 0
10 9 1e+14
11 9 0
12 9 0
13 9 3e+14
14 9 1e+14
15 9 1e+14
16 9 1e+14
17 9 0
18 9 4e+14
19 9 1e+14
20 9 1e+14
21 9 0
22 9 2e+14
23 9 1e+14
24 9 3e+14
25 9 0
26 9 2e+14
27 9 2e+14
28 9 2e+14
29 9 2e+14
30 9 3e+14
31 9 2e+14
32 9 4e+14
33 9 3e+14
34 9 5e+14
35 9 5e+14
36 9 1e+14
37 9 1e+14
38 9 3e+14
39 9 3e+14
40 9 6e+14
41 9 4e+14
42 9 3e+14
43 9 1e+14
44 9 0
45 9 2e+14
46 9 1e+14
47 9 3e+14
48 9 1e+14
49 9 1e+14
50 9 1e+14
51 9 4e+14
52 9 4e+14
53 9 1e+14
54 9 1e+14
55 9 2e+14
56 9 3e+14
57 9 1e+14
58 9 1e+14
59 9 1e+14
60 9 3e+14
61 9 5e+14
62 9 0
63 9 2e+14
64 9 3e+14
65 9 1e+14
66 9 2e+14
67 9 2e+14
68 9 0
69 9 1e+14
70 9 3e+14
71 9 7e+14
72 9 0
73 9 3e+14
74 9 2e+14
75 9 3e+14
76 9 1e+14
77 9 0
78 9 1e+14
79 9 0
80 9 1e+14
81 9 0
82 9 3e+14
83 9 0
84 9 1e+14
85 9 0
86 9 1e+14
87 9 1e+14
88 9 0
89 9 0
90 9 0
91 9 0
92 9 0
93 9 0
94 9 1e+14
95 9 0
96 9 0
97 9 0
98 9 0
99 9 0
100 9 0
1 10 0
2 10 0
3 10 0
4 10 0
5 10 0
6 10 0
7 10 0
8 10 0
9 10 0
10 10 0
11 10 0
12 10 0
13 10 1e+14
14 10 0
15 10 3e+14
16 10 0
17 10 0
18 10 1e+14
19 10 0
20 10 1e+14
21 10 2e+14
22 10 2e+14
23 10 5e+14
24 10 0
25 10 2e+14
26 10 0
27 10 3e+14
28 10 1e+14
29 10 3e+14
30 10 3e+14
31 10 3e+14
32 10 9e+14
33 10 3e+14
34 10 4e+14
35 10 4e+14
36 10 1e+14
37 10 2e+14
38 10 2e+14
39 10 2e+14
40 10 1e+14
41 10 2e+14
42 10 2e+14
43 10 3e+14
44 10 1e+14
45 10 0
46 10 1e+14
47 10 2e+14
48 10 1e+14
49 10 0
50 10 1e+14
51 10 1e+14
52 10 4e+14
53 10 2e+14
54 10 1e+14
55 10 1e+14
56 10 1e+14
57 10 2e+14
58 10 7e+14
59 10 3e+14
60 10 5e+14
61 10 4e+14
62 10 1e+14
63 10 3e+14
64 10 1e+14
65 10 3e+14
66 10 4e+14
67 10 1e+14
68 10 2e+14
69 10 3e+14
70 10 1e+14
71 10 1e+14
72 10 2e+14
73 10 5e+14
74 10 0
75 10 3e+14
76 10 0
77 10 2e+14
78 10 2e+14
79 10 2e+14
80 10 2e+14
81 10 1e+14
82 10 2e+14
83 10 2e+14
84 10 2e+14
85 10 1e+14
86 10 1e+14
87 10 0
88 10 0
89 10 0
90 10 2e+14
91 10 0
92 10 0
93 10 0
94 10 0
95 10 0
96 10 0
97 10 0
98 10 0
99 10 0
100 10 0
1 11 1e+14
2 11 0
3 11 0
4 11 0
5 11 0
6 11 0
7 11 2e+14
8 11 0
9 11 0
10 11 0
11 11 0
12 11 1e+14
13 11 0
14 11 1e+14
15 11 0
16 11 1e+14
17 11 2e+14
18 11 1e+14
19 11 4e+14
20 11 3e+14
21 11 2e+14
22 11 2e+14
23 11 2e+14
24 11 2e+14
25 11 1e+14
26 11 0
27 11 2e+14
28 11 1e+14
29 11 4e+14
30 11 3e+14
31 11 3e+14
32 11 5e+14
33 11 4e+14
34 11 3e+14
35 11 3e+14
36 11 3e+14
37 11 2e+14
38 11 0
39 11 1e+14
40 11 2e+14
41 11 1e+14
42 11 2e+14
43 11 1e+14
44 11 3e+14
45 11 2e+14
46 11 2e+14
47 11 2e+14
48 11 4e+14
49 11 2e+14
50 11 1e+14
51 11 0
52 11 5e+14
53 11 1e+14
54 11 0
55 11 0
56 11 5e+14
57 11 2e+14
58 11 1e+14
59 11 3e+14
60 11 2e+14
61 11 4e+14
62 11 1e+14
63 11 0
64 11 3e+14
65 11 2e+14
66 11 5e+14
67 11 4e+14
68 11 2e+14
69 11 3e+14
70 11 1e+14
71 11 3e+14
72 11 5e+14
73 11 3e+14
74 11 3e+14
75 11 4e+14
76 11 2e+14
77 11 0
78 11 4e+14
79 11 1e+14
80 11 4e+14
81 11 1e+14
82 11 1e+14
83 11 3e+14
84 11 2e+14
85 11 1e+14
86 11 1e+14
87 11 1e+14
88 11 0
89 11 0
90 11 0
91 11 1e+14
92 11 0
93 11 1e+14
94 11 0
95 11 0
96 11 0
97 11 0
98 11 0
99 11 0
100 11 0
1 12 0
2 12 0
3 12 0
4 12 0
5 12 1e+14
6 12 1e+14
7 12 0
8 12 0
9 12 0
10 12 0
11 12 1e+14
12 12 1e+14
13 12 1e+14
14 12 1e+14
15 12 2e+14
16 12 2e+14
17 12 2e+14
18 12 2e+14
19 12 1e+14
20 12 1e+14
21 12 3e+14
22 12 2e+14
23 12 1e+14
24 12 4e+14
25 12 3e+14
26 12 1e+14
27 12 2e+14
28 12 6e+14
29 12 0
30 12 1e+14
31 12 4e+14
32 12 3e+14
33 12 4e+14
34 12 1e+14
35 12 4e+14
36 12 4e+14
37 12 3e+14
38 12 3e+14
39 12 2e+14
40 12 1e+14
41 12 4e+14
42 12 4e+14
43 12 3e+14
44 12 1e+14
45 12 2e+14
46 12 1e+14
47 12 2e+14
48 12 1e+14
49 12 5e+14
50 12 1e+14
51 12 1e+14
52 12 4e+14
53 12 3e+14
54 12 1e+14
55 12 0
56 12 4e+14
57 12 2e+14
58 12 2e+14
59 12 2e+14
60 12 3e+14
61 12 4e+14
62 12 6e+14
63 12 4e+14
64 12 3e+14
65 12 2e+14
66 12 1e+14
67 12 1e+14
68 12 8e+14
69 12 2e+14
70 12 3e+14
71 12 2e+14
72 12 1e+14
73 12 1e+14
74 12 3e+14
75 12 3e+14
76 12 1e+14
77 12 0
78 12 0
79 12 4e+14
80 12 2e+14
81 12 3e+14
82 12 1e+14
83 12 4e+14
84 12 1e+14
85 12 0
86 12 4e+14
87 12 0
88 12 0
89 12 2e+14
90 12 0
91 12 3e+14
92 12 0
93 12 0
94 12 0
95 12 0
96 12 0
97 12 0
98 12 0
99 12 0
100 12 0
1 13 0
2 13 0
3 13 0
4 13 0
5 13 1e+14
6 13 1e+14
7 13 1e+14
8 13 0
9 13 0
10 13 0
11 13 0
12 13 0
13 13 1e+14
14 13 1e+14
15 13 1e+14
16 13 0
17 13 1e+14
18 13 1e+14
19 13 0
20 13 1e+14
21 13 1e+14
22 13 0
23 13 2e+14
24 13 2e+14
25 13 1e+14
26 13 2e+14
27 13 2e+14
28 13 3e+14
29 13 4e+14
30 13 2e+14
31 13 3e+14
32 13 1e+15
33 13 2e+14
34 13 2e+14
35 13 3e+14
36 13 6e+14
37 13 4e+14
38 13 2e+14
39 13 4e+14
40 13 2e+14
41 13 2e+14
42 13 0
43 13 2e+14
44 13 3e+14
45 13 1e+14
46 13 3e+14
47 13 3e+14
48 13 3e+14
49 13 4e+14
50 13 3e+14
51 13 1e+14
52 13 4e+14
53 13 1e+14
54 13 4e+14
55 13 2e+14
56 13 3e+14
57 13 3e+14
58 13 4e+14
59 13 2e+14
60 13 2e+14
61 13 2e+14
62 13 3e+14
63 13 2e+14
64 13 3e+14
65 13 4e+14
66 13 2e+14
67 13 3e+14
68 13 3e+14
69 13 6e+14
70 13 2e+14
71 13 3e+14
72 13 3e+14
73 13 0
74 13 1e+14
75 13 2e+14
76 13 2e+14
77 13 1e+14
78 13 2e+14
79 13 0
80 13 3e+14
81 13 3e+14
82 13 2e+14
83 13 4e+14
84 13 1e+14
85 13 0
86 13 1e+14
87 13 0
88 13 0
89 13 0
90 13 1e+14
91 13 1e+14
92 13 0
93 13 0
94 13 1e+14
95 13 1e+14
96 13 0
97 13 0
98 13 0
99 13 0
100 13 0
1 14 0
2 14 2e+14
3 14 0
4 14 1e+14
5 14 0
6 14 0
7 14 1e+14
8 14 0
9 14 0
10 14 1e+14
11 14 1e+14
12 14 1e+14
13 14 1e+14
14 14 4e+14
15 14 0
16 14 1e+14
17 14 3e+14
18 14 2e+14
19 14 1e+14
20 14 2e+14
21 14 1e+14
22 14 2e+14
23 14 2e+14
24 14 1e+14
25 14 3e+14
26 14 2e+14
27 14 0
28 14 4e+14
29 14 1e+14
30 14 0
31 14 0
32 14 3e+14
33 14 3e+14
34 14 3e+14
35 14 0
36 14 3e+14
37 14 1e+14
38 14 4e+14
39 14 2e+14
40 14 3e+14
41 14 4e+14
42 14 2e+14
43 14 1e+14
44 14 1e+14
45 14 3e+14
46 14 0
47 14 1e+14
48 14 3e+14
49 14 2e+14
50 14 1e+14
51 14 3e+14
52 14 0
53 14 2e+14
54 14 6e+14
55 14 2e+14
56 14 1e+14
57 14 2e+14
58 14 1e+14
59 14 1e+14
60 14 0
61 14 7e+14
62 14 6e+14
63 14 1e+14
64 14 1e+14
65 14 6e+14
66 14 4e+14
67 14 6e+14
68 14 6e+14
69 14 2e+14
70 14 3e+14
71 14 1e+14
72 14 1e+14
73 14 5e+14
74 14 1e+14
75 14 1e+14
76 14 1e+14
77 14 1e+14
78 14 4e+14
79 14 2e+14
80 14 1e+14
81 14 2e+14
82 14 2e+14
83 14 1e+14
84 14 1e+14
85 14 1e+14
86 14 1e+14
87 14 1e+14
88 14 0
89 14 1e+14
90 14 1e+14
91 14 3e+14
92 14 1e+14
93 14 1e+14
94 14 0
95 14 0
96 14 1e+14
97 14 0
98 14 0
99 14 1e+14
100 14 0
1 15 0
2 15 0
3 15 0
4 15 0
5 15 0
6 15 0
7 15 0
8 15 1e+14
9 15 0
10 15 0
11 15 1e+14
12 15 0
13 15 0
14 15 0
15 15 0
16 15 0
17 15 2e+14
18 15 1e+14
19 15 3e+14
20 15 0
21 15 1e+14
22 15 4e+14
23 15 2e+14
24 15 4e+14
25 15 1e+14
26 15 5e+14
27 15 1e+14
28 15 1e+14
29 15 3e+14
30 15 8e+14
31 15 6e+14
32 15 4e+14
33 15 5e+14
34 15 4e+14
35 15 5e+14
36 15 2e+14
37 15 1e+14
38 15 2e+14
39 15 5e+14
40 15 2e+14
41 15 4e+14
42 15 3e+14
43 15 1e+14
44 15 7e+14
45 15 2e+14
46 15 2e+14
47 15 2e+14
48 15 0
49 15 1e+14
50 15 2e+14
51 15 1e+14
52 15 2e+14
53 15 1e+14
54 15 2e+14
55 15 5e+14
56 15 2e+14
57 15 1e+14
58 15 2e+14
59 15 2e+14
60 15 4e+14
61 15 6e+14
62 15 2e+14
63 15 2e+14
64 15 4e+14
65 15 5e+14
66 15 2e+14
67 15 2e+14
68 15 3e+14
69 15 2e+14
70 15 6e+14
71 15 1e+14
72 15 2e+14
73 15 1e+14
74 15 2e+14
75 15 0
76 15 3e+14
77 15 1e+14
78 15 2e+14
79 15 1e+14
80 15 2e+14
81 15 3e+14
82 15 1e+14
83 15 2e+14
84 15 2e+14
85 15 1e+14
86 15 2e+14
87 15 3e+14
88 15 3e+14
89 15 0
90 15 0
91 15 0
92 15 0
93 15 0
94 15 0
95 15 1e+14
96 15 2e+14
97 15 1e+14
98 15 1e+14
99 15 0
100 15 0
1 16 0
2 16 0
3 16 0
4 16 0
5 16 1e+14
6 16 0
7 16 1e+14
8 16 2e+14
9 16 1e+14
10 16 1e+14
11 16 1e+14
12 16 1e+14
13 16 1e+14
14 16 1e+14
15 16 2e+14
16 16 1e+14
17 16 1e+14
18 16 1e+14
19 16 0
20 16 1e+14
21 16 2e+14
22 16 3e+14
23 16 0
24 16 1e+14
25 16 3e+14
26 16 1e+14
27 16 2e+14
28 16 6e+14
29 16 5e+14
30 16 6e+14
31 16 2e+14
32 16 6e+14
33 16 5e+14
34 16 1e+14
35 16 2e+14
36 16 1e+14
37 16 1e+14
38 16 4e+14
39 16 5e+14
40 16 1e+14
41 16 2e+14
42 16 4e+14
43 16 1e+14
44 16 1e+14
45 16 3e+14
46 16 2e+14
47 16 1e+14
48 16 0
49 16 7e+14
50 16 2e+14
51 16 4e+14
52 16 3e+14
53 16 2e+14
54 16 4e+14
55 16 0
56 16 3e+14
57 16 1e+14
58 16 2e+14
59 16 1e+14
60 16 5e+14
61 16 3e+14
62 16 4e+14
63 16 6e+14
64 16 1e+14
65 16 3e+14
66 16 4e+14
67 16 3e+14
68 16 4e+14
69 16 9e+14
70 16 3e+14
71 16 5e+14
72 16 2e+14
73 16 4e+14
74 16 2e+14
75 16 1e+14
76 16 0
77 16 0
78 16 1e+14
79 16 1e+14
80 16 1e+14
81 16 0
82 16 4e+14
83 16 0
84 16 2e+14
85 16 2e+14
86 16 2e+14
87 16 1e+14
88 16 2e+14
89 16 0
90 16 3e+14
91 16 0
92 16 2e+14
93 16 0
94 16 0
95 16 0
96 16 0
97 16 1e+14
98 16 1e+14
99 16 0
100 16 0
1 17 0
2 17 0
3 17 1e+14
4 17 0
5 17 0
6 17 0
7 17 1e+14
8 17 1e+14
9 17 0
10 17 1e+14
11 17 0
12 17 2e+14
13 17 0
14 17 0
15 17 0
16 17 0
17 17 0
18 17 0
19 17 2e+14
20 17 0
21 17 0
22 17 3e+14
23 17 1e+14
24 17 3e+14
25 17 0
26 17 2e+14
27 17 6e+14
28 17 2e+14
29 17 3e+14
30 17 3e+14
31 17 4e+14
32 17 6e+14
33 17 3e+14
34 17 4e+14
35 17 2e+14
36 17 4e+14
37 17 3e+14
38 17 5e+14
39 17 3e+14
40 17 3e+14
41 17 0
42 17 3e+14
43 17 2e+14
44 17 5e+14
45 17 2e+14
46 17 1e+14
47 17 0
48 17 1e+14
49 17 2e+14
50 17 1e+14
51 17 1e+14
52 17 3e+14
53 17 4e+14
54 17 3e+14
55 17 1e+14
56 17 1e+14
57 17 1e+14
58 17 5e+14
59 17 0
60 17 4e+14
61 17 1e+14
62 17 5e+14
63 17 2e+14
64 17 4e+14
65 17 6e+14
66 17 6e+14
67 17 3e+14
68 17 5e+14
69 17 1e+14
70 17 4e+14
71 17 1e+14
72 17 2e+14
73 17 3e+14
74 17 1e+14
75 17 1e+14
76 17 2e+14
77 17 0
78 17 0
79 17 4e+14
80 17 2e+14
81 17 2e+14
82 17 4e+14
83 17 1e+14
84 17 1e+14
85 17 1e+14
86 17 1e+14
87 17 1e+14
88 17 1e+14
89 17 1e+14
90 17 3e+14
91 17 2e+14
92 17 0
93 17 1e+14
94 17 1e+14
95 17 0
96 17 1e+14
97 17 1e+14
98 17 0
99 17 0
100 17 0
1 18 1e+14
2 18 1e+14
3 18 1e+14
4 18 1e+14
5 18 1e+14
6 18 1e+14
7 18 1e+14
8 18 3e+14
9 18 1e+14
10 18 3e+14
11 18 2e+14
12 18 0
13 18 0
14 18 2e+14
15 18 2e+14
16 18 0
17 18 0
18 18 1e+14
19 18 0
20 18 3e+14
21 18 1e+14
22 18 2e+14
23 18 1e+14
24 18 1e+14
25 18 4e+14
26 18 3e+14
27 18 4e+14
28 18 4e+14
29 18 3e+14
30 18 4e+14
31 18 5e+14
32 18 3e+14
33 18 3e+14
34 18 6e+14
35 18 4e+14
36 18 2e+14
37 18 5e+14
38 18 1e+14
39 18 3e+14
40 18 4e+14
41 18 0
42 18 5e+14
43 18 4e+14
44 18 3e+14
45 18 3e+14
46 18 3e+14
47 18 0
48 18 2e+14
49 18 2e+14
50 18 2e+14
51 18 2e+14
52 18 2e+14
53 18 1e+14
54 18 3e+14
55 18 1e+14
56 18 1e+14
57 18 2e+14
58 18 3e+14
59 18 0
60 18 5e+14
61 18 5e+14
62 18 2e+14
63 18 4e+14
64 18 3e+14
65 18 2e+14
66 18 5e+14
67 18 3e+14
68 18 3e+14
69 18 5e+14
70 18 2e+14
71 18 4e+14
72 18 2e+14
73 18 5e+14
74 18 3e+14
75 18 1e+14
76 18 1e+14
77 18 1e+14
78 18 1e+14
79 18 2e+14
80 18 0
81 18 0
82 18 3e+14
83 18 1e+14
84 18 1e+14
85 18 0
86 18 2e+14
87 18 4e+14
88 18 3e+14
89 18 1e+14
90 18 1e+14
91 18 0
92 18 0
93 18 0
94 18 0
95 18 1e+14
96 18 0
97 18 0
98 18 0
99 18 1e+14
100 18 0
1 19 0
2 19 1e+14
3 19 0
4 19 1e+14
5 19 1e+14
6 19 2e+14
7 19 0
8 19 0
9 19 4e+14
10 19 2e+14
11 19 0
12 19 1e+14
13 19 0
14 19 2e+14
15 19 1e+14
16 19 0
17 19 1e+14
18 19 1e+14
19 19 3e+14
20 19 2e+14
21 19 2e+14
22 19 2e+14
23 19 2e+14
24 19 1e+14
25 19 2e+14
26 19 3e+14
27 19 4e+14
28 19 6e+14
29 19 4e+14
30 19 3e+14
31 19 4e+14
32 19 1e+14
33 19 5e+14
34 19 3e+14
35 19 7e+14
36 19 3e+14
37 19 3e+14
38 19 3e+14
39 19 3e+14
40 19 1e+14
41 19 7e+14
42 19 1e+14
43 19 5e+14
44 19 2e+14
45 19 6e+14
46 19 2e+14
47 19 2e+14
48 19 2e+14
49 19 0
50 19 3e+14
51 19 4e+14
52 19 2e+14
53 19 2e+14
54 19 4e+14
55 19 1e+14
56 19 1e+14
57 19 1e+14
58 19 2e+14
59 19 5e+14
60 19 4e+14
61 19 2e+14
62 19 3e+14
63 19 3e+14
64 19 7e+14
65 19 2e+14
66 19 5e+14
67 19 6e+14
68 19 3e+14
69 19 2e+14
70 19 3e+14
71 19 2e+14
72 19 3e+14
73 19 0
74 19 3e+14
75 19 3e+14
76 19 3e+14
77 19 7e+14
78 19 2e+14
79 19 2e+14
80 19 0
81 19 2e+14
82 19 3e+14
83 19 3e+14
84 19 1e+14
85 19 4e+14
86 19 2e+14
87 19 6e+14
88 19 0
89 19 1e+14
90 19 0
91 19 2e+14
92 19 2e+14
93 19 0
94 19 0
95 19 1e+14
96 19 0
97 19 0
98 19 1e+14
99 19 0
100 19 0
1 20 0
2 20 0
3 20 2e+14
4 20 0
5 20 0
6 20 0
7 20 2e+14
8 20 0
9 20 1e+14
10 20 3e+14
11 20 1e+14
12 20 6e+14
13 20 3e+14
14 20 0
15 20 3e+14
16 20 0
17 20 1e+14
18 20 3e+14
19 20 1e+14
20 20 3e+14
21 20 2e+14
22 20 4e+14
23 20 1e+14
24 20 1e+14
25 20 0
26 20 1e+14
27 20 5e+14
28 20 2e+14
29 20 2e+14
30 20 4e+14
31 20 2e+14
32 20 6e+14
33 20 2e+14
34 20 3e+14
35 20 2e+14
36 20 6e+14
37 20 3e+14
38 20 8e+14
39 20 2e+14
40 20 1e+14
41 20 0
42 20 1e+14
43 20 3e+14
44 20 4e+14
45 20 3e+14
46 20 4e+14
47 20 0
48 20 2e+14
49 20 2e+14
50 20 1e+14
51 20 3e+14
52 20 1e+14
53 20 1e+14
54 20 3e+14
55 20 1e+14
56 20 0
57 20 2e+14
58 20 2e+14
59 20 3e+14
60 20 4e+14
61 20 2e+14
62 20 4e+14
63 20 5e+14
64 20 3e+14
65 20 3e+14
66 20 4e+14
67 20 5e+14
68 20 8e+14
69 20 5e+14
70 20 6e+14
71 20 4e+14
72 20 4e+14
73 20 4e+14
74 20 2e+14
75 20 4e+14
76 20 1e+14
77 20 6e+14
78 20 3e+14
79 20 3e+14
80 20 4e+14
81 20 0
82 20 2e+14
83 20 1e+14
84 20 5e+14
85 20 0
86 20 6e+14
87 20 1e+14
88 20 2e+14
89 20 1e+14
90 20 3e+14
91 20 1e+14
92 20 1e+14
93 20 2e+14
94 20 3e+14
95 20 0
96 20 0
97 20 1e+14
98 20 0
99 20 0
100 20 0
1 21 0
2 21 0
3 21 1e+14
4 21 0
5 21 2e+14
6 21 0
7 21 0
8 21 0
9 21 0
10 21 2e+14
11 21 0
12 21 0
13 21 1e+14
14 21 1e+14
15 21 2e+14
16 21 0
17 21 2e+14
18 21 3e+14
19 21 2e+14
20 21 0
21 21 2e+14
22 21 0
23 21 1e+14
24 21 2e+14
25 21 2e+14
26 21 2e+14
27 21 1e+14
28 21 0
29 21 3e+14
30 21 8e+14
31 21 1e+14
32 21 2e+14
33 21 3e+14
34 21 5e+14
35 21 6e+14
36 21 0
37 21 3e+14
38 21 5e+14
39 21 5e+14
40 21 8e+14
41 21 3e+14
42 21 6e+14
43 21 5e+14
44 21 3e+14
45 21 5e+14
46 21 3e+14
47 21 0
48 21 2e+14
49 21 1e+14
50 21 2e+14
51 21 2e+14
52 21 6e+14
53 21 3e+14
54 21 2e+14
55 21 4e+14
56 21 1e+14
57 21 5e+14
58 21 5e+14
59 21 3e+14
60 21 4e+14
61 21 2e+14
62 21 5e+14
63 21 2e+14
64 21 4e+14
65 21 6e+14
66 21 4e+14
67 21 5e+14
68 21 4e+14
69 21 3e+14
70 21 3e+14
71 21 3e+14
72 21 5e+14
73 21 3e+14
74 21 7e+14
75 21 3e+14
76 21 2e+14
77 21 2e+14
78 21 1e+14
79 21 1e+14
80 21 2e+14
81 21 3e+14
82 21 4e+14
83 21 5e+14
84 21 1e+14
85 21 1e+14
86 21 2e+14
87 21 3e+14
88 21 3e+14
89 21 2e+14
90 21 1e+14
91 21 4e+14
92 21 2e+14
93 21 0
94 21 1e+14
95 21 1e+14
96 21 3e+14
97 21 0
98 21 0
99 21 0
100 21 0
1 22 0
2 22 0
3 22 0
4 22 0
5 22 1e+14
6 22 1e+14
7 22 0
8 22 2e+14
9 22 0
10 22 1e+14
11 22 1e+14
12 22 1e+14
13 22 3e+14
14 22 0
15 22 1e+14
16 22 2e+14
17 22 2e+14
18 22 1e+14
19 22 1e+14
20 22 1e+14
21 22 4e+14
22 22 5e+14
23 22 0
24 22 1e+14
25 22 1e+14
26 22 1e+14
27 22 5e+14
28 22 7e+14
29 22 2e+14
30 22 3e+14
31 22 1e+15
32 22 4e+14
33 22 1e+14
34 22 6e+14
35 22 4e+14
36 22 2e+14
37 22 5e+14
38 22 7e+14
39 22 4e+14
40 22 3e+14
41 22 3e+14
42 22 5e+14
43 22 2e+14
44 22 2e+14
45 22 1e+14
46 22 4e+14
47 22 4e+14
48 22 8e+14
49 22 5e+14
50 22 4e+14
51 22 2e+14
52 22 2e+14
53 22 3e+14
54 22 4e+14
55 22 1e+14
56 22 5e+14
57 22 4e+14
58 22 3e+14
59 22 4e+14
60 22 3e+14
61 22 1e+14
62 22 2e+14
63 22 1e+14
64 22 5e+14
65 22 5e+14
66 22 5e+14
67 22 4e+14
68 22 5e+14
69 22 3e+14
70 22 3e+14
71 22 4e+14
72 22 4e+14
73 22 3e+14
74 22 1e+14
75 22 4e+14
76 22 1e+14
77 22 0
78 22 0
79 22 2e+14
80 22 2e+14
81 22 5e+14
82 22 1e+14
83 22 1e+14
84 22 2e+14
85 22 2e+14
86 22 3e+14
87 22 4e+14
88 22 1e+14
89 22 1e+14
90 22 1e+14
91 22 2e+14
92 22 1e+14
93 22 0
94 22 0
95 22 0
96 22 1e+14
97 22 0
98 22 0
99 22 0
100 22 0
1 23 0
2 23 1e+14
3 23 0
4 23 4e+14
5 23 0
6 23 1e+14
7 23 1e+14
8 23 3e+14
9 23 2e+14
10 23 2e+14
11 23 1e+14
12 23 0
13 23 4e+14
14 23 2e+14
15 23 0
16 23 1e+14
17 23 4e+14
18 23 0
19 23 0
20 23 3e+14
21 23 2e+14
22 23 1e+14
23 23 4e+14
24 23 1e+14
25 23 2e+14
26 23 3e+14
27 23 6e+14
28 23 2e+14
29 23 6e+14
30 23 7e+14
31 23 3e+14
32 23 6e+14
33 23 3e+14
34 23 3e+14
35 23 7e+14
36 23 6e+14
37 23 2e+14
38 23 5e+14
39 23 8e+14
40 23 2e+14
41 23 3e+14
42 23 3e+14
43 23 7e+14
44 23 2e+14
45 23 3e+14
46 23 1e+14
47 23 3e+14
48 23 1e+14
49 23 0
50 23 1e+14
51 23 1e+14
52 23 0
53 23 1e+14
54 23 2e+14
55 23 2e+14
56 23 2e+14
57 23 5e+14
58 23 3e+14
59 23 2e+14
60 23 6e+14
61 23 5e+14
62 23 3e+14
63 23 3e+14
64 23 3e+14
65 23 3e+14
66 23 3e+14
67 23 3e+14
68 23 4e+14
69 23 1e+14
70 23 3e+14
71 23 5e+14
72 23 7e+14
73 23 1e+14
74 23 4e+14
75 23 2e+14
76 23 2e+14
77 23 2e+14
78 23 3e+14
79 23 1e+14
80 23 2e+14
81 23 4e+14
82 23 4e+14
83 23 1e+14
84 23 3e+14
85 23 0
86 23 3e+14
87 23 5e+14
88 23 1e+14
89 23 2e+14
90 23 0
91 23 0
92 23 2e+14
93 23 2e+14
94 23 1e+14
95 23 1e+14
96 23 0
97 23 1e+14
98 23 1e+14
99 23 0
100 23 0
1 24 0
2 24 0
3 24 2e+14
4 24 1e+14
5 24 0
6 24 4e+14
7 24 0
8 24 2e+14
9 24 2e+14
10 24 2e+14
11 24 2e+14
12 24 2e+14
13 24 1e+14
14 24 1e+14
15 24 2e+14
16 24 2e+14
17 24 2e+14
18 24 2e+14
19 24 2e+14
20 24 0
21 24 1e+14
22 24 1e+14
23 24 5e+14
24 24 1e+14
25 24 1e+14
26 24 3e+14
27 24 3e+14
28 24 5e+14
29 24 7e+14
30 24 6e+14
31 24 3e+14
32 24 4e+14
33 24 5e+14
34 24 6e+14
35 24 3e+14
36 24 2e+14
37 24 2e+14
38 24 3e+14
39 24 4e+14
40 24 4e+14
41 24 2e+14
42 24 2e+14
43 24 2e+14
44 24 2e+14
45 24 3e+14
46 24 3e+14
47 24 2e+14
48 24 3e+14
49 24 0
50 24 6e+14
51 24 2e+14
52 24 2e+14
53 24 4e+14
54 24 1e+14
55 24 2e+14
56 24 3e+14
57 24 3e+14
58 24 4e+14
59 24 2e+14
60 24 2e+14
61 24 9e+14
62 24 2e+14
63 24 3e+14
64 24 8e+14
65 24 3e+14
66 24 5e+14
67 24 2e+14
68 24 8e+14
69 24 7e+14
70 24 3e+14
71 24 1.1e+15
72 24 5e+14
73 24 7e+14
74 24 5e+14
75 24 3e+14
76 24 2e+14
77 24 3e+14
78 24 1e+14
79 24 2e+14
80 24 1e+14
81 24 2e+14
82 24 1e+14
83 24 2e+14
84 24 2e+14
85 24 1e+14
86 24 2e+14
87 24 0
88 24 3e+14
89 24 2e+14
90 24 5e+14
91 24 3e+14
92 24 1e+14
93 24 2e+14
94 24 0
95 24 2e+14
96 24 0
97 24 0
98 24 0
99 24 0
100 24 0
1 25 0
2 25 0
3 25 0
4 25 1e+14
5 25 0
6 25 1e+14
7 25 2e+14
8 25 4e+14
9 25 2e+14
10 25 1e+14
11 25 2e+14
12 25 2e+14
13 25 2e+14
14 25 0
15 25 3e+14
16 25 2e+14
17 25 2e+14
18 25 2e+14
19 25 2e+14
20 25 1e+14
21 25 3e+14
22 25 3e+14
23 25 2e+14
24 25 5e+14
25 25 2e+14
26 25 1e+15
27 25 3e+14
28 25 8e+14
29 25 4e+14
30 25 3e+14
31 25 4e+14
32 25 8e+14
33 25 5e+14
34 25 8e+14
35 25 4e+14
36 25 4e+14
37 25 4e+14
38 25 4e+14
39 25 8e+14
40 25 5e+14
41 25 6e+14
42 25 4e+14
43 25 4e+14
44 25 4e+14
45 25 3e+14
46 25 5e+14
47 25 3e+14
48 25 2e+14
49 25 1e+14
50 25 4e+14
51 25 3e+14
52 25 3e+14
53 25 0
54 25 0
55 25 3e+14
56 25 6e+14
57 25 3e+14
58 25 2e+14
59 25 6e+14
60 25 4e+14
61 25 5e+14
62 25 7e+14
63 25 2e+14
64 25 3e+14
65 25 6e+14
66 25 8e+14
67 25 7e+14
68 25 4e+14
69 25 3e+14
70 25 7e+14
71 25 6e+14
72 25 3e+14
73 25 5e+14
74 25 3e+14
75 25 5e+14
76 25 3e+14
77 25 2e+14
78 25 2e+14
79 25 2e+14
80 25 5e+14
81 25 4e+14
82 25 2e+14
83 25 2e+14
84 25 2e+14
85 25 3e+14
86 25 0
87 25 0
88 25 3e+14
89 25 7e+14
90 25 1e+14
91 25 5e+14
92 25 5e+14
93 25 1e+14
94 25 0
95 25 0
96 25 3e+14
97 25 2e+14
98 25 0
99 25 1e+14
100 25 0
1 26 0
2 26 0
3 26 0
4 26 0
5 26 1e+14
6 26 0
7 26 4e+14
8 26 2e+14
9 26 2e+14
10 26 3e+14
11 26 1e+14
12 26 3e+14
13 26 1e+14
14 26 5e+14
15 26 2e+14
16 26 2e+14
17 26 5e+14
18 26 2e+14
19 26 4e+14
20 26 3e+14
21 26 4e+14
22 26 2e+14
23 26 1e+14
24 26 2e+14
25 26 5e+14
26 26 2e+14
27 26 3e+14
28 26 4e+14
29 26 4e+14
30 26 5e+14
31 26 1e+15
32 26 4e+14
33 26 9e+14
34 26 7e+14
35 26 9e+14
36 26 9e+14
37 26 1.1e+15
38 26 4e+14
39 26 4e+14
40 26 4e+14
41 26 4e+14
42 26 5e+14
43 26 5e+14
44 26 6e+14
45 26 3e+14
46 26 4e+14
47 26 9e+14
48 26 3e+14
49 26 1e+14
50 26 1e+14
51 26 2e+14
52 26 4e+14
53 26 0
54 26 5e+14
55 26 7e+14
56 26 8e+14
57 26 7e+14
58 26 6e+14
59 26 3e+14
60 26 6e+14
61 26 5e+14
62 26 4e+14
63 26 9e+14
64 26 3e+14
65 26 6e+14
66 26 1e+15
67 26 2e+14
68 26 6e+14
69 26 6e+14
70 26 5e+14
71 26 7e+14
72 26 4e+14
73 26 8e+14
74 26 5e+14
75 26 2e+14
76 26 5e+14
77 26 5e+14
78 26 5e+14
79 26 0
80 26 3e+14
81 26 5e+14
82 26 0
83 26 2e+14
84 26 3e+14
85 26 4e+14
86 26 1e+14
87 26 2e+14
88 26 3e+14
89 26 2e+14
90 26 3e+14
91 26 2e+14
92 26 0
93 26 2e+14
94 26 1e+14
95 26 2e+14
96 26 2e+14
97 26 0
98 26 1e+14
99 26 0
100 26 0
1 27 2e+14
2 27 0
3 27 0
4 27 0
5 27 1e+14
6 27 2e+14
7 27 0
8 27 3e+14
9 27 3e+14
10 27 0
11 27 2e+14
12 27 3e+14
13 27 4e+14
14 27 5e+14
15 27 2e+14
16 27 8e+14
17 27 1e+14
18 27 5e+14
19 27 4e+14
20 27 2e+14
21 27 3e+14
22 27 2e+14
23 27 4e+14
24 27 3e+14
25 27 4e+14
26 27 2e+14
27 27 5e+14
28 27 6e+14
29 27 4e+14
30 27 1.1e+15
31 27 6e+14
32 27 2e+14
33 27 3e+14
34 27 5e+14
35 27 9e+14
36 27 5e+14
37 27 4e+14
38 27 7e+14
39 27 4e+14
40 27 3e+14
41 27 1.1e+15
42 27 4e+14
43 27 2e+14
44 27 6e+14
45 27 1e+15
46 27 5e+14
47 27 4e+14
48 27 5e+14
49 27 3e+14
50 27 3e+14
51 27 1e+14
52 27 5e+14
53 27 2e+14
54 27 2e+14
55 27 5e+14
56 27 8e+14
57 27 3e+14
58 27 1e+14
59 27 6e+14
60 27 8e+14
61 27 8e+14
62 27 8e+14
63 27 9e+14
64 27 9e+14
65 27 5e+14
66 27 1.3e+15
67 27 5e+14
68 27 8e+14
69 27 8e+14
70 27 4e+14
71 27 3e+14
72 27 5e+14
73 27 8e+14
74 27 4e+14
75 27 2e+14
76 27 1e+14
77 27 1e+14
78 27 4e+14
79 27 1e+14
80 27 2e+14
81 27 3e+14
82 27 3e+14
83 27 1e+14
84 27 1e+14
85 27 3e+14
86 27 2e+14
87 27 1e+14
88 27 2e+14
89 27 1e+14
90 27 3e+14
91 27 3e+14
92 27 4e+14
93 27 2e+14
94 27 1e+14
95 27 2e+14
96 27 1e+14
97 27 1e+14
98 27 0
99 27 0
100 27 0
1 28 0
2 28 0
3 28 0
4 28 0
5 28 0
6 28 3e+14
7 28 2e+14
8 28 1e+14
9 28 3e+14
10 28 5e+14
11 28 4e+14
12 28 1e+14
13 28 6e+14
14 28 5e+14
15 28 3e+14
16 28 2e+14
17 28 3e+14
18 28 4e+14
19 28 3e+14
20 28 7e+14
21 28 4e+14
22 28 3e+14
23 28 5e+14
24 28 5e+14
25 28 1e+14
26 28 9e+14
27 28 9e+14
28 28 9e+14
29 28 1.8e+15
30 28 9e+14
31 28 6e+14
32 28 9e+14
33 28 7e+14
34 28 6e+14
35 28 1e+15
36 28 7e+14
37 28 1e+15
38 28 8e+14
39 28 1.1e+15
40 28 7e+14
41 28 7e+14
42 28 7e+14
43 28 7e+14
44 28 5e+14
45 28 1.2e+15
46 28 1e+15
47 28 1e+15
48 28 7e+14
49 28 3e+14
50 28 5e+14
51 28 1e+14
52 28 5e+14
53 28 6e+14
54 28 9e+14
55 28 9e+14
56 28 1e+15
57 28 8e+14
58 28 9e+14
59 28 5e+14
60 28 7e+14
61 28 1e+15
62 28 1.1e+15
63 28 1.8e+15
64 28 9e+14
65 28 9e+14
66 28 7e+14
67 28 9e+14
68 28 1.2e+15
69 28 1.1e+15
70 28 8e+14
71 28 6e+14
72 28 5e+14
73 28 1e+15
74 28 8e+14
75 28 1.4e+15
76 28 2e+14
77 28 1e+14
78 28 4e+14
79 28 3e+14
80 28 2e+14
81 28 4e+14
82 28 4e+14
83 28 2e+14
84 28 3e+14
85 28 1e+14
86 28 1e+14
87 28 3e+14
88 28 3e+14
89 28 1e+14
90 28 2e+14
91 28 4e+14
92 28 0
93 28 1e+14
94 28 2e+14
95 28 1e+14
96 28 1e+14
97 28 0
98 28 1e+14
99 28 0
100 28 0
1 29 1e+14
2 29 1e+14
3 29 1e+14
4 29 0
5 29 0
6 29 0
7 29 4e+14
8 29 1e+14
9 29 1e+14
10 29 1e+14
11 29 4e+14
12 29 5e+14
13 29 2e+14
14 29 1e+14
15 29 3e+14
16 29 5e+14
17 29 3e+14
18 29 3e+14
19 29 4e+14
20 29 5e+14
21 29 3e+14
22 29 6e+14
23 29 3e+14
24 29 4e+14
25 29 7e+14
26 29 7e+14
27 29 6e+14
28 29 5e+14
29 29 1e+15
30 29 1e+15
31 29 3e+14
32 29 7e+14
33 29 7e+14
34 29 1.5e+15
35 29 9e+14
36 29 9e+14
37 29 1.1e+15
38 29 7e+14
39 29 1e+15
40 29 3e+14
41 29 7e+14
42 29 1.1e+15
43 29 6e+14
44 29 6e+14
45 29 5e+14
46 29 7e+14
47 29 9e+14
48 29 5e+14
49 29 3e+14
50 29 5e+14
51 29 2e+14
52 29 4e+14
53 29 3e+14
54 29 7e+14
55 29 1e+15
56 29 8e+14
57 29 7e+14
58 29 1e+15
59 29 5e+14
60 29 1.1e+15
61 29 9e+14
62 29 1.1e+15
63 29 8e+14
64 29 8e+14
65 29 1e+15
66 29 9e+14
67 29 1e+15
68 29 1.7e+15
69 29 2e+15
70 29 1.2e+15
71 29 1.5e+15