title="iDensity"
variables = "x","y","num"
zone i=100,j=100,f=point
1 1 1e+15
2 1 9e+14
3 1 8e+14
4 1 4e+14
5 1 2e+14
6 1 6e+14
7 1 2e+14
8 1 5e+14
9 1 5e+14
10 1 4e+14
11 1 2e+14
12 1 0
13 1 1e+14
14 1 4e+14
15 1 3e+14
16 1 2e+14
17 1 2e+14
18 1 1e+14
19 1 2e+14
20 1 1e+14
21 1 5e+14
22 1 3e+14
23 1 1e+14
24 1 4e+14
25 1 1e+14
26 1 2e+14
27 1 5e+14
28 1 1e+14
29 1 1e+14
30 1 0
31 1 2e+14
32 1 3e+14
33 1 3e+14
34 1 1e+14
35 1 0
36 1 1e+14
37 1 0
38 1 3e+14
39 1 0
40 1 0
41 1 0
42 1 2e+14
43 1 1e+14
44 1 1e+14
45 1 0
46 1 4e+14
47 1 4e+14
48 1 2e+14
49 1 0
50 1 0
51 1 1e+14
52 1 3e+14
53 1 5e+14
54 1 0
55 1 2e+14
56 1 2e+14
57 1 1e+14
58 1 0
59 1 2e+14
60 1 1e+14
61 1 1e+14
62 1 1e+14
63 1 1e+14
64 1 0
65 1 2e+14
66 1 3e+14
67 1 1e+14
68 1 6e+14
69 1 3e+14
70 1 2e+14
71 1 2e+14
72 1 0
73 1 2e+14
74 1 5e+14
75 1 1e+14
76 1 0
77 1 3e+14
78 1 5e+14
79 1 1e+14
80 1 4e+14
81 1 1e+14
82 1 0
83 1 2e+14
84 1 1e+14
85 1 5e+14
86 1 1e+14
87 1 1e+14
88 1 1e+14
89 1 4e+14
90 1 2e+14
91 1 2e+14
92 1 3e+14
93 1 6e+14
94 1 1e+14
95 1 4e+14
96 1 1e+14
97 1 6e+14
98 1 1e+15
99 1 7e+14
100 1 1.2e+15
1 2 1.1e+15
2 2 1.5e+15
3 2 1.3e+15
4 2 8e+14
5 2 7e+14
6 2 7e+14
7 2 9e+14
8 2 6e+14
9 2 1e+14
10 2 1e+14
11 2 1e+14
12 2 4e+14
13 2 2e+14
14 2 8e+14
15 2 1e+14
16 2 4e+14
17 2 3e+14
18 2 6e+14
19 2 2e+14
20 2 4e+14
21 2 3e+14
22 2 1e+14
23 2 2e+14
24 2 2e+14
25 2 3e+14
26 2 2e+14
27 2 0
28 2 3e+14
29 2 2e+14
30 2 5e+14
31 2 0
32 2 0
33 2 1e+14
34 2 3e+14
35 2 3e+14
36 2 2e+14
37 2 3e+14
38 2 0
39 2 1e+14
40 2 2e+14
41 2 4e+14
42 2 2e+14
43 2 1e+14
44 2 2e+14
45 2 3e+14
46 2 1e+14
47 2 2e+14
48 2 3e+14
49 2 1e+14
50 2 2e+14
51 2 3e+14
52 2 7e+14
53 2 3e+14
54 2 5e+14
55 2 0
56 2 1e+14
57 2 1e+14
58 2 2e+14
59 2 3e+14
60 2 3e+14
61 2 2e+14
62 2 2e+14
63 2 2e+14
64 2 1e+14
65 2 1e+14
66 2 1e+14
67 2 0
68 2 3e+14
69 2 0
70 2 3e+14
71 2 4e+14
72 2 1e+14
73 2 0
74 2 1e+14
75 2 4e+14
76 2 4e+14
77 2 1e+14
78 2 3e+14
79 2 2e+14
80 2 3e+14
81 2 0
82 2 1e+14
83 2 2e+14
84 2 3e+14
85 2 1e+14
86 2 4e+14
87 2 0
88 2 3e+14
89 2 4e+14
90 2 0
91 2 2e+14
92 2 0
93 2 5e+14
94 2 1.2e+15
95 2 1e+15
96 2 8e+14
97 2 1e+15
98 2 8e+14
99 2 1.7e+15
100 2 8e+14
1 3 1.4e+15
2 3 5e+14
3 3 5e+14
4 3 1.3e+15
5 3 9e+14
6 3 8e+14
7 3 4e+14
8 3 3e+14
9 3 4e+14
10 3 3e+14
11 3 3e+14
12 3 4e+14
13 3 6e+14
14 3 2e+14
15 3 3e+14
16 3 2e+14
17 3 3e+14
18 3 2e+14
19 3 1e+14
20 3 3e+14
21 3 4e+14
22 3 3e+14
23 3 3e+14
24 3 1e+14
25 3 0
26 3 3e+14
27 3 3e+14
28 3 1e+14
29 3 3e+14
30 3 2e+14
31 3 4e+14
32 3 0
33 3 2e+14
34 3 1e+14
35 3 1e+14
36 3 2e+14
37 3 2e+14
38 3 1e+14
39 3 2e+14
40 3 3e+14
41 3 2e+14
42 3 2e+14
43 3 6e+14
44 3 1e+14
45 3 4e+14
46 3 0
47 3 2e+14
48 3 2e+14
49 3 2e+14
50 3 2e+14
51 3 2e+14
52 3 3e+14
53 3 5e+14
54 3 2e+14
55 3 5e+14
56 3 2e+14
57 3 3e+14
58 3 1e+14
59 3 0
60 3 2e+14
61 3 1e+14
62 3 2e+14
63 3 4e+14
64 3 5e+14
65 3 2e+14
66 3 1e+14
67 3 2e+14
68 3 2e+14
69 3 2e+14
70 3 1e+14
71 3 3e+14
72 3 1e+14
73 3 0
74 3 2e+14
75 3 3e+14
76 3 2e+14
77 3 2e+14
78 3 1e+14
79 3 3e+14
80 3 3e+14
81 3 5e+14
82 3 4e+14
83 3 4e+14
84 3 5e+14
85 3 5e+14
86 3 4e+14
87 3 2e+14
88 3 3e+14
89 3 4e+14
90 3 6e+14
91 3 7e+14
92 3 3e+14
93 3 4e+14
94 3 1.2e+15
95 3 6e+14
96 3 2e+15
97 3 1e+15
98 3 3e+14
99 3 8e+14
100 3 8e+14
1 4 5e+14
2 4 5e+14
3 4 6e+14
4 4 2.3e+15
5 4 1.6e+15
6 4 1.5e+15
7 4 1.5e+15
8 4 1.4e+15
9 4 1e+15
10 4 1.2e+15
11 4 7e+14
12 4 8e+14
13 4 4e+14
14 4 4e+14
15 4 5e+14
16 4 4e+14
17 4 5e+14
18 4 5e+14
19 4 1e+14
20 4 3e+14
21 4 3e+14
22 4 4e+14
23 4 6e+14
24 4 3e+14
25 4 3e+14
26 4 5e+14
27 4 4e+14
28 4 3e+14
29 4 2e+14
30 4 2e+14
31 4 4e+14
32 4 4e+14
33 4 3e+14
34 4 4e+14
35 4 4e+14
36 4 5e+14
37 4 0
38 4 4e+14
39 4 3e+14
40 4 4e+14
41 4 3e+14
42 4 1e+14
43 4 3e+14
44 4 5e+14
45 4 0
46 4 6e+14
47 4 1e+14
48 4 2e+14
49 4 1e+14
50 4 4e+14
51 4 2e+14
52 4 4e+14
53 4 1e+14
54 4 1e+14
55 4 1e+14
56 4 5e+14
57 4 4e+14
58 4 3e+14
59 4 2e+14
60 4 2e+14
61 4 4e+14
62 4 1e+14
63 4 3e+14
64 4 2e+14
65 4 3e+14
66 4 6e+14
67 4 2e+14
68 4 3e+14
69 4 4e+14
70 4 1e+14
71 4 4e+14
72 4 4e+14
73 4 2e+14
74 4 4e+14
75 4 2e+14
76 4 1e+14
77 4 6e+14
78 4 6e+14
79 4 1e+14
80 4 2e+14
81 4 6e+14
82 4 5e+14
83 4 5e+14
84 4 5e+14
85 4 3e+14
86 4 4e+14
87 4 4e+14
88 4 7e+14
89 4 8e+14
90 4 7e+14
91 4 8e+14
92 4 1e+15
93 4 1.3e+15
94 4 9e+14
95 4 1.9e+15
96 4 1.1e+15
97 4 1.7e+15
98 4 1.5e+15
99 4 1.3e+15
100 4 4e+14
1 5 1.1e+15
2 5 7e+14
3 5 1.1e+15
4 5 4e+14
5 5 2e+15
6 5 1.2e+15
7 5 1.4e+15
8 5 1.1e+15
9 5 1.5e+15
10 5 2.2e+15
11 5 5e+14
12 5 1e+15
13 5 8e+14
14 5 7e+14
15 5 8e+14
16 5 9e+14
17 5 8e+14
18 5 6e+14
19 5 5e+14
20 5 4e+14
21 5 4e+14
22 5 7e+14
23 5 2e+14
24 5 3e+14
25 5 5e+14
26 5 3e+14
27 5 1e+14
28 5 5e+14
29 5 5e+14
30 5 2e+14
31 5 7e+14
32 5 3e+14
33 5 3e+14
34 5 3e+14
35 5 4e+14
36 5 1e+14
37 5 4e+14
38 5 1e+14
39 5 2e+14
40 5 3e+14
41 5 3e+14
42 5 4e+14
43 5 1e+14
44 5 1e+14
45 5 3e+14
46 5 1e+14
47 5 3e+14
48 5 1e+14
49 5 1e+14
50 5 7e+14
51 5 3e+14
52 5 3e+14
53 5 3e+14
54 5 4e+14
55 5 3e+14
56 5 1e+14
57 5 3e+14
58 5 0
59 5 4e+14
60 5 3e+14
61 5 3e+14
62 5 0
63 5 2e+14
64 5 2e+14
65 5 4e+14
66 5 2e+14
67 5 3e+14
68 5 3e+14
69 5 2e+14
70 5 5e+14
71 5 2e+14
72 5 4e+14
73 5 6e+14
74 5 1e+14
75 5 7e+14
76 5 4e+14
77 5 4e+14
78 5 3e+14
79 5 3e+14
80 5 4e+14
81 5 3e+14
82 5 0
83 5 4e+14
84 5 4e+14
85 5 7e+14
86 5 1.2e+15
87 5 7e+14
88 5 1.1e+15
89 5 1e+15
90 5 9e+14
91 5 1.9e+15
92 5 2.5e+15
93 5 8e+14
94 5 1.1e+15
95 5 9e+14
96 5 1.4e+15
97 5 1.7e+15
98 5 8e+14
99 5 8e+14
100 5 9e+14
1 6 7e+14
2 6 9e+14
3 6 8e+14
4 6 1.4e+15
5 6 1.2e+15
6 6 6e+14
7 6 9e+14
8 6 8e+14
9 6 1.4e+15
10 6 1.9e+15
11 6 1.5e+15
12 6 9e+14
13 6 1.2e+15
14 6 1.5e+15
15 6 1.1e+15
16 6 1e+15
17 6 5e+14
18 6 9e+14
19 6 8e+14
20 6 6e+14
21 6 8e+14
22 6 4e+14
23 6 5e+14
24 6 6e+14
25 6 3e+14
26 6 3e+14
27 6 4e+14
28 6 4e+14
29 6 7e+14
30 6 2e+14
31 6 1e+14
32 6 6e+14
33 6 3e+14
34 6 2e+14
35 6 3e+14
36 6 6e+14
37 6 2e+14
38 6 4e+14
39 6 4e+14
40 6 5e+14
41 6 7e+14
42 6 1e+14
43 6 8e+14
44 6 2e+14
45 6 3e+14
46 6 3e+14
47 6 4e+14
48 6 7e+14
49 6 1e+14
50 6 8e+14
51 6 3e+14
52 6 3e+14
53 6 3e+14
54 6 5e+14
55 6 1e+14
56 6 7e+14
57 6 6e+14
58 6 4e+14
59 6 4e+14
60 6 5e+14
61 6 3e+14
62 6 5e+14
63 6 4e+14
64 6 2e+14
65 6 5e+14
66 6 8e+14
67 6 0
68 6 4e+14
69 6 4e+14
70 6 2e+14
71 6 6e+14
72 6 3e+14
73 6 4e+14
74 6 2e+14
75 6 2e+14
76 6 4e+14
77 6 5e+14
78 6 5e+14
79 6 8e+14
80 6 8e+14
81 6 7e+14
82 6 1e+15
83 6 1.2e+15
84 6 1.1e+15
85 6 8e+14
86 6 9e+14
87 6 1.7e+15
88 6 1e+15
89 6 1.2e+15
90 6 1.4e+15
91 6 1.7e+15
92 6 5e+14
93 6 7e+14
94 6 9e+14
95 6 8e+14
96 6 1.5e+15
97 6 1.4e+15
98 6 7e+14
99 6 6e+14
100 6 7e+14
1 7 5e+14
2 7 4e+14
3 7 4e+14
4 7 1.1e+15
5 7 1.2e+15
6 7 1e+15
7 7 1.3e+15
8 7 5e+14
9 7 1e+15
10 7 1.9e+15
11 7 1.4e+15
12 7 1.6e+15
13 7 1e+15
14 7 1.7e+15
15 7 1.6e+15
16 7 1.2e+15
17 7 1.7e+15
18 7 1.1e+15
19 7 8e+14
20 7 5e+14
21 7 7e+14
22 7 1.2e+15
23 7 4e+14
24 7 9e+14
25 7 3e+14
26 7 1.3e+15
27 7 3e+14
28 7 4e+14
29 7 7e+14
30 7 4e+14
31 7 6e+14
32 7 2e+14
33 7 2e+14
34 7 7e+14
35 7 5e+14
36 7 3e+14
37 7 8e+14
38 7 5e+14
39 7 2e+14
40 7 2e+14
41 7 3e+14
42 7 0
43 7 5e+14
44 7 9e+14
45 7 5e+14
46 7 3e+14
47 7 3e+14
48 7 3e+14
49 7 2e+14
50 7 7e+14
51 7 3e+14
52 7 6e+14
53 7 3e+14
54 7 5e+14
55 7 0
56 7 1e+14
57 7 2e+14
58 7 5e+14
59 7 5e+14
60 7 3e+14
61 7 7e+14
62 7 2e+14
63 7 5e+14
64 7 2e+14
65 7 3e+14
66 7 2e+14
67 7 5e+14
68 7 4e+14
69 7 3e+14
70 7 3e+14
71 7 4e+14
72 7 4e+14
73 7 5e+14
74 7 5e+14
75 7 6e+14
76 7 9e+14
77 7 9e+14
78 7 4e+14
79 7 9e+14
80 7 5e+14
81 7 7e+14
82 7 7e+14
83 7 7e+14
84 7 1.5e+15
85 7 1.4e+15
86 7 1.2e+15
87 7 2.1e+15
88 7 5e+14
89 7 1e+15
90 7 1.7e+15
91 7 9e+14
92 7 1e+15
93 7 3e+14
94 7 6e+14
95 7 1.3e+15
96 7 1.2e+15
97 7 1.6e+15
98 7 3e+14
99 7 4e+14
100 7 5e+14
1 8 5e+14
2 8 7e+14
3 8 4e+14
4 8 2e+15
5 8 1.6e+15
6 8 1.6e+15
7 8 1.6e+15
8 8 8e+14
9 8 1.6e+15
10 8 1.2e+15
11 8 9e+14
12 8 1.2e+15
13 8 7e+14
14 8 1.5e+15
15 8 1.5e+15
16 8 1.3e+15
17 8 9e+14
18 8 1e+15
19 8 1.8e+15
20 8 1e+15
21 8 1.1e+15
22 8 7e+14
23 8 9e+14
24 8 8e+14
25 8 4e+14
26 8 1.3e+15
27 8 5e+14
28 8 7e+14
29 8 6e+14
30 8 9e+14
31 8 7e+14
32 8 8e+14
33 8 6e+14
34 8 4e+14
35 8 5e+14
36 8 6e+14
37 8 3e+14
38 8 5e+14
39 8 5e+14
40 8 5e+14
41 8 7e+14
42 8 6e+14
43 8 8e+14
44 8 2e+14
45 8 9e+14
46 8 6e+14
47 8 7e+14
48 8 5e+14
49 8 8e+14
50 8 5e+14
51 8 3e+14
52 8 7e+14
53 8 6e+14
54 8 8e+14
55 8 1e+15
56 8 5e+14
57 8 7e+14
58 8 5e+14
59 8 4e+14
60 8 4e+14
61 8 5e+14
62 8 2e+14
63 8 8e+14
64 8 2e+14
65 8 1.1e+15
66 8 3e+14
67 8 8e+14
68 8 6e+14
69 8 7e+14
70 8 7e+14
71 8 6e+14
72 8 5e+14
73 8 8e+14
74 8 6e+14
75 8 9e+14
76 8 6e+14
77 8 8e+14
78 8 9e+14
79 8 1.1e+15
80 8 1.4e+15
81 8 1.5e+15
82 8 1.7e+15
83 8 8e+14
84 8 1.4e+15
85 8 1.4e+15
86 8 1.3e+15
87 8 1.2e+15
88 8 1.4e+15
89 8 7e+14
90 8 1.3e+15
91 8 1.4e+15
92 8 1.6e+15
93 8 1.4e+15
94 8 1.6e+15
95 8 1.6e+15
96 8 1.3e+15
97 8 1.1e+15
98 8 5e+14
99 8 4e+14
100 8 3e+14
1 9 2e+14
2 9 4e+14
3 9 4e+14
4 9 7e+14
5 9 1.4e+15
6 9 9e+14
7 9 8e+14
8 9 8e+14
9 9 2e+15
10 9 1e+15
11 9 1.3e+15
12 9 1.1e+15
13 9 1.4e+15
14 9 1.4e+15
15 9 1.2e+15
16 9 1.2e+15
17 9 1.2e+15
18 9 1.3e+15
19 9 1e+15
20 9 7e+14
21 9 1.9e+15
22 9 1.5e+15
23 9 7e+14
24 9 1.3e+15
25 9 1.1e+15
26 9 8e+14
27 9 1.4e+15
28 9 6e+14
29 9 7e+14
30 9 8e+14
31 9 9e+14
32 9 4e+14
33 9 6e+14
34 9 1.1e+15
35 9 6e+14
36 9 5e+14
37 9 6e+14
38 9 6e+14
39 9 6e+14
40 9 9e+14
41 9 7e+14
42 9 5e+14
43 9 1e+15
44 9 9e+14
45 9 1.4e+15
46 9 8e+14
47 9 1.2e+15
48 9 6e+14
49 9 1.1e+15
50 9 7e+14
51 9 1e+15
52 9 7e+14
53 9 1.1e+15
54 9 1.8e+15
55 9 8e+14
56 9 9e+14
57 9 9e+14
58 9 6e+14
59 9 1e+15
60 9 9e+14
61 9 8e+14
62 9 6e+14
63 9 4e+14
64 9 8e+14
65 9 4e+14
66 9 7e+14
67 9 7e+14
68 9 5e+14
69 9 7e+14
70 9 4e+14
71 9 1.2e+15
72 9 8e+14
73 9 6e+14
74 9 4e+14
75 9 1e+15
76 9 1.8e+15
77 9 8e+14
78 9 1.1e+15
79 9 1e+15
80 9 1.8e+15
81 9 9e+14
82 9 1.7e+15
83 9 1.3e+15
84 9 1.5e+15
85 9 1.3e+15
86 9 1.4e+15
87 9 9e+14
88 9 1.9e+15
89 9 9e+14
90 9 9e+14
91 9 2e+15
92 9 9e+14
93 9 2.1e+15
94 9 1.1e+15
95 9 8e+14
96 9 2e+15
97 9 1.1e+15
98 9 6e+14
99 9 7e+14
100 9 4e+14
1 10 2e+14
2 10 3e+14
3 10 7e+14
4 10 1.2e+15
5 10 1.5e+15
6 10 1.2e+15
7 10 1.5e+15
8 10 8e+14
9 10 1.5e+15
10 10 1.4e+15
11 10 1.5e+15
12 10 1.5e+15
13 10 9e+14
14 10 1.2e+15
15 10 1.5e+15
16 10 1.4e+15
17 10 8e+14
18 10 1.1e+15
19 10 1.1e+15
20 10 1.2e+15
21 10 1.5e+15
22 10 1.1e+15
23 10 1.5e+15
24 10 1.4e+15
25 10 1e+15
26 10 1.5e+15
27 10 1.5e+15
28 10 1.1e+15
29 10 1.2e+15
30 10 9e+14
31 10 1e+15
32 10 1.2e+15
33 10 5e+14
34 10 1e+15
35 10 9e+14
36 10 8e+14
37 10 1.1e+15
38 10 1e+15
39 10 1.5e+15
40 10 1.1e+15
41 10 1.6e+15
42 10 1.2e+15
43 10 1e+15
44 10 8e+14
45 10 1.3e+15
46 10 1.4e+15
47 10 1.5e+15
48 10 8e+14
49 10 1.3e+15
50 10 1.6e+15
51 10 1e+15
52 10 1.4e+15
53 10 1e+15
54 10 1e+15
55 10 8e+14
56 10 1.2e+15
57 10 1.2e+15
58 10 1.2e+15
59 10 1.3e+15
60 10 1e+15
61 10 1.6e+15
62 10 1.2e+15
63 10 9e+14
64 10 1.2e+15
65 10 1.2e+15
66 10 7e+14
67 10 1.5e+15
68 10 8e+14
69 10 8e+14
70 10 1.1e+15
71 10 1e+15
72 10 9e+14
73 10 1e+15
74 10 1.5e+15
75 10 1.2e+15
76 10 1.2e+15
77 10 2.1e+15
78 10 1.1e+15
79 10 1.6e+15
80 10 1.7e+15
81 10 9e+14
82 10 1.3e+15
83 10 1.3e+15
84 10 1.4e+15
85 10 1.3e+15
86 10 5e+14
87 10 1.4e+15
88 10 1.3e+15
89 10 9e+14
90 10 1.1e+15
91 10 1.5e+15
92 10 5e+14
93 10 8e+14
94 10 2e+14
95 10 1.4e+15
96 10 2.2e+15
97 10 8e+14
98 10 4e+14
99 10 2e+14
100 10 2e+14
1 11 2e+14
2 11 1e+14
3 11 2e+14
4 11 6e+14
5 11 1.6e+15
6 11 1.3e+15
7 11 1e+15
8 11 1.5e+15
9 11 1.4e+15
10 11 1.7e+15
11 11 1.4e+15
12 11 9e+14
13 11 1.2e+15
14 11 6e+14
15 11 1e+15
16 11 1.5e+15
17 11 1.2e+15
18 11 1.2e+15
19 11 1.3e+15
20 11 1e+15
21 11 1e+15
22 11 9e+14
23 11 1.4e+15
24 11 1.5e+15
25 11 1.3e+15
26 11 1.8e+15
27 11 9e+14
28 11 1.4e+15
29 11 9e+14
30 11 1e+15
31 11 1.2e+15
32 11 1.2e+15
33 11 1e+15
34 11 1.6e+15
35 11 1.5e+15
36 11 1.3e+15
37 11 1.8e+15
38 11 1.8e+15
39 11 1.6e+15
40 11 1.6e+15
41 11 1.7e+15
42 11 1.4e+15
43 11 1.3e+15
44 11 2e+15
45 11 1.3e+15
46 11 1.5e+15
47 11 1.1e+15
48 11 1e+15
49 11 1e+15
50 11 1.5e+15
51 11 1.1e+15
52 11 1.7e+15
53 11 1.3e+15
54 11 1.2e+15
55 11 1.6e+15
56 11 1.7e+15
57 11 1.7e+15
58 11 1.5e+15
59 11 1.6e+15
60 11 1.2e+15
61 11 2.4e+15
62 11 1.4e+15
63 11 1.7e+15
64 11 1.9e+15
65 11 1.4e+15
66 11 1.9e+15
67 11 1.4e+15
68 11 1.2e+15
69 11 1.3e+15
70 11 1.2e+15
71 11 1e+15
72 11 1.7e+15
73 11 9e+14
74 11 1.1e+15
75 11 2.2e+15
76 11 1.1e+15
77 11 1.7e+15
78 11 8e+14
79 11 1.3e+15
80 11 1.6e+15
81 11 1.2e+15
82 11 1.4e+15
83 11 1.3e+15
84 11 9e+14
85 11 1.4e+15
86 11 1.3e+15
87 11 1.4e+15
88 11 1.5e+15
89 11 1.2e+15
90 11 1.8e+15
91 11 1.9e+15
92 11 1e+15
93 11 1.4e+15
94 11 1.5e+15
95 11 1.1e+15
96 11 1e+15
97 11 9e+14
98 11 4e+14
99 11 3e+14
100 11 5e+14
1 12 2e+14
2 12 3e+14
3 12 4e+14
4 12 4e+14
5 12 8e+14
6 12 1.9e+15
7 12 1.2e+15
8 12 8e+14
9 12 1.4e+15
10 12 9e+14
11 12 1.6e+15
12 12 1.4e+15
13 12 7e+14
14 12 1.2e+15
15 12 1.3e+15
16 12 1e+15
17 12 1.3e+15
18 12 1.2e+15
19 12 1.4e+15
20 12 1.4e+15
21 12 9e+14
22 12 1.3e+15
23 12 1.9e+15
24 12 1.4e+15
25 12 1.5e+15
26 12 1.1e+15
27 12 1.5e+15
28 12 1.3e+15
29 12 1.2e+15
30 12 1.3e+15
31 12 1.2e+15
32 12 2.6e+15
33 12 1.8e+15
34 12 2e+15
35 12 2.7e+15
36 12 2.7e+15
37 12 1.7e+15
38 12 1.9e+15
39 12 1.9e+15
40 12 1.9e+15
41 12 1.4e+15
42 12 1.5e+15
43 12 1.5e+15
44 12 1.4e+15
45 12 1.4e+15
46 12 1.7e+15
47 12 1.4e+15
48 12 1e+15
49 12 1.3e+15
50 12 1.6e+15
51 12 1.3e+15
52 12 2e+15
53 12 1.1e+15
54 12 1e+15
55 12 1.4e+15
56 12 1.2e+15
57 12 1.3e+15
58 12 1.2e+15
59 12 1.5e+15
60 12 1.8e+15
61 12 2.2e+15
62 12 1.8e+15
63 12 1.5e+15
64 12 2.3e+15
65 12 2e+15
66 12 2.4e+15
67 12 3.1e+15
68 12 1.2e+15
69 12 1.8e+15
70 12 2e+15
71 12 2e+15
72 12 1.6e+15
73 12 2e+15
74 12 1.2e+15
75 12 1.1e+15
76 12 1.2e+15
77 12 1.5e+15
78 12 8e+14
79 12 1.2e+15
80 12 1.6e+15
81 12 8e+14
82 12 1.2e+15
83 12 1.2e+15
84 12 1.5e+15
85 12 1.6e+15
86 12 2e+15
87 12 6e+14
88 12 1.3e+15
89 12 1.9e+15
90 12 1.5e+15
91 12 1e+15
92 12 1.2e+15
93 12 1.4e+15
94 12 1.2e+15
95 12 1e+15
96 12 1.2e+15
97 12 6e+14
98 12 6e+14
99 12 1e+14
100 12 2e+14
1 13 3e+14
2 13 0
3 13 6e+14
4 13 5e+14
5 13 1e+15
6 13 1.3e+15
7 13 1.2e+15
8 13 1.3e+15
9 13 4e+14
10 13 9e+14
11 13 8e+14
12 13 1.3e+15
13 13 8e+14
14 13 1.2e+15
15 13 8e+14
16 13 9e+14
17 13 2.1e+15
18 13 1.3e+15
19 13 1.5e+15
20 13 1.4e+15
21 13 1.4e+15
22 13 1.5e+15
23 13 1.3e+15
24 13 1.6e+15
25 13 1.4e+15
26 13 1e+15
27 13 1.2e+15
28 13 1.4e+15
29 13 1e+15
30 13 1.2e+15
31 13 2.1e+15
32 13 3.1e+15
33 13 2.5e+15
34 13 2.5e+15
35 13 2e+15
36 13 1.6e+15
37 13 1.4e+15
38 13 2.2e+15
39 13 1.5e+15
40 13 1.5e+15
41 13 1.4e+15
42 13 1.5e+15
43 13 1e+15
44 13 1.2e+15
45 13 1e+15
46 13 5e+14
47 13 9e+14
48 13 8e+14
49 13 8e+14
50 13 9e+14
51 13 1.6e+15
52 13 8e+14
53 13 1.1e+15
54 13 1e+15
55 13 1.3e+15
56 13 1.6e+15
57 13 1.7e+15
58 13 1.7e+15
59 13 1.5e+15
60 13 1.4e+15
61 13 7e+14
62 13 2.1e+15
63 13 1e+15
64 13 1.3e+15
65 13 1.9e+15
66 13 2.7e+15
67 13 1.9e+15
68 13 2.4e+15
69 13 1.9e+15
70 13 1.8e+15
71 13 1.5e+15
72 13 1.8e+15
73 13 6e+14
74 13 1.4e+15
75 13 1.3e+15
76 13 1.7e+15
77 13 1.3e+15
78 13 8e+14
79 13 1.9e+15
80 13 1.1e+15
81 13 9e+14
82 13 9e+14
83 13 1.3e+15
84 13 1e+15
85 13 6e+14
86 13 1.2e+15
87 13 1.2e+15
88 13 8e+14
89 13 1.4e+15
90 13 9e+14
91 13 4e+14
92 13 1.2e+15
93 13 9e+14
94 13 1.3e+15
95 13 1.3e+15
96 13 1.1e+15
97 13 3e+14
98 13 6e+14
99 13 2e+14
100 13 2e+14
1 14 0
2 14 4e+14
3 14 1e+14
4 14 3e+14
5 14 1e+15
6 14 1.8e+15
7 14 1.5e+15
8 14 1.6e+15
9 14 1.3e+15
10 14 1.3e+15
11 14 1.1e+15
12 14 7e+14
13 14 1.2e+15
14 14 1.1e+15
15 14 1e+15
16 14 1.5e+15
17 14 9e+14
18 14 1.1e+15
19 14 1.8e+15
20 14 1e+15
21 14 1e+15
22 14 1.4e+15
23 14 1.7e+15
24 14 1.4e+15
25 14 7e+14
26 14 1.7e+15
27 14 1.7e+15
28 14 1.7e+15
29 14 2.2e+15
30 14 2.5e+15
31 14 2.7e+15
32 14 3.4e+15
33 14 2.2e+15
34 14 1.8e+15
35 14 1.3e+15
36 14 1.2e+15
37 14 1.5e+15
38 14 8e+14
39 14 1.5e+15
40 14 1e+15
41 14 1e+15
42 14 1.4e+15
43 14 8e+14
44 14 1.4e+15
45 14 8e+14
46 14 9e+14
47 14 1.1e+15
48 14 1.1e+15
49 14 1.2e+15
50 14 9e+14
51 14 6e+14
52 14 7e+14
53 14 9e+14
54 14 5e+14
55 14 6e+14
56 14 9e+14
57 14 9e+14
58 14 8e+14
59 14 7e+14
60 14 1.3e+15
61 14 7e+14
62 14 1.4e+15
63 14 7e+14
64 14 1e+15
65 14 1.3e+15
66 14 1.4e+15
67 14 7e+14
68 14 2.2e+15
69 14 1.9e+15
70 14 3.2e+15
71 14 2.8e+15
72 14 2e+15
73 14 1.4e+15
74 14 1.4e+15
75 14 1.8e+15
76 14 2.1e+15
77 14 1.8e+15
78 14 8e+14
79 14 1.3e+15
80 14 1.5e+15
81 14 1.1e+15
82 14 1.3e+15
83 14 1.3e+15
84 14 1.3e+15
85 14 1.2e+15
86 14 9e+14
87 14 1.5e+15
88 14 9e+14
89 14 1.2e+15
90 14 1.4e+15
91 14 1.1e+15
92 14 1.6e+15
93 14 9e+14
94 14 1e+15
95 14 1.4e+15
96 14 1.7e+15
97 14 2e+14
98 14 3e+14
99 14 4e+14
100 14 2e+14
1 15 0
2 15 1e+14
3 15 4e+14
4 15 9e+14
5 15 7e+14
6 15 7e+14
7 15 9e+14
8 15 1.7e+15
9 15 1.4e+15
10 15 1.1e+15
11 15 1.2e+15
12 15 1.7e+15
13 15 1.7e+15
14 15 7e+14
15 15 1.2e+15
16 15 1.9e+15
17 15 1.1e+15
18 15 1.9e+15
19 15 1.4e+15
20 15 1.5e+15
21 15 9e+14
22 15 1.2e+15
23 15 7e+14
24 15 1.8e+15
25 15 1.6e+15
26 15 1.9e+15
27 15 1.4e+15
28 15 2.8e+15
29 15 3.4e+15
30 15 1.9e+15
31 15 2e+15
32 15 1.8e+15
33 15 1.1e+15
34 15 1.2e+15
35 15 2e+15
36 15 9e+14
37 15 1.3e+15
38 15 5e+14
39 15 1.2e+15
40 15 7e+14
41 15 4e+14
42 15 9e+14
43 15 5e+14
44 15 4e+14
45 15 4e+14
46 15 7e+14
47 15 4e+14
48 15 4e+14
49 15 9e+14
50 15 8e+14
51 15 5e+14
52 15 6e+14
53 15 3e+14
54 15 7e+14
55 15 6e+14
56 15 1.1e+15
57 15 3e+14
58 15 3e+14
59 15 5e+14
60 15 4e+14
61 15 9e+14
62 15 1.3e+15
63 15 1.1e+15
64 15 1.1e+15
65 15 1e+15
66 15 2.2e+15
67 15 1.9e+15
68 15 1e+15
69 15 7e+14
70 15 2.4e+15
71 15 2.9e+15
72 15 2.6e+15
73 15 3e+15
74 15 1.9e+15
75 15 1.4e+15
76 15 1.7e+15
77 15 1.1e+15
78 15 1.5e+15
79 15 1.6e+15
80 15 9e+14
81 15 2e+15
82 15 9e+14
83 15 1.1e+15
84 15 1e+15
85 15 1.5e+15
86 15 8e+14
87 15 1e+15
88 15 1.8e+15
89 15 1.6e+15
90 15 6e+14
91 15 1.5e+15
92 15 1.2e+15
93 15 1.3e+15
94 15 1.8e+15
95 15 1e+15
96 15 9e+14
97 15 2e+14
98 15 3e+14
99 15 1e+14
100 15 1e+14
1 16 2e+14
2 16 2e+14
3 16 2e+14
4 16 3e+14
5 16 5e+14
6 16 6e+14
7 16 1.7e+15
8 16 1.3e+15
9 16 1.2e+15
10 16 1.5e+15
11 16 1.6e+15
12 16 1e+15
13 16 1.6e+15
14 16 1.2e+15
15 16 1.3e+15
16 16 1.4e+15
17 16 9e+14
18 16 1.3e+15
19 16 1.7e+15
20 16 1.7e+15
21 16 1.8e+15
22 16 1.5e+15
23 16 9e+14
24 16 1.8e+15
25 16 1.6e+15
26 16 2.1e+15
27 16 2.1e+15
28 16 3.6e+15
29 16 1.5e+15
30 16 2.2e+15
31 16 1.4e+15
32 16 1.5e+15
33 16 1.7e+15
34 16 1.3e+15
35 16 9e+14
36 16 3e+14
37 16 7e+14
38 16 6e+14
39 16 9e+14
40 16 5e+14
41 16 9e+14
42 16 6e+14
43 16 4e+14
44 16 6e+14
45 16 3e+14
46 16 5e+14
47 16 9e+14
48 16 8e+14
49 16 6e+14
50 16 6e+14
51 16 7e+14
52 16 6e+14
53 16 8e+14
54 16 6e+14
55 16 8e+14
56 16 9e+14
57 16 6e+14
58 16 1.1e+15
59 16 4e+14
60 16 1.3e+15
61 16 6e+14
62 16 6e+14
63 16 7e+14
64 16 8e+14
65 16 9e+14
66 16 9e+14
67 16 9e+14
68 16 1.7e+15
69 16 1.9e+15
70 16 2.2e+15
71 16 1.3e+15
72 16 1.6e+15
73 16 2.7e+15
74 16 3.7e+15
75 16 2.3e+15
76 16 1.3e+15
77 16 1.3e+15
78 16 1.3e+15
79 16 1.1e+15
80 16 1.1e+15
81 16 1.4e+15
82 16 1.1e+15
83 16 1.2e+15
84 16 1.1e+15
85 16 1.2e+15
86 16 1.1e+15
87 16 1.4e+15
88 16 1.6e+15
89 16 1.3e+15
90 16 8e+14
91 16 6e+14
92 16 1.6e+15
93 16 6e+14
94 16 1.7e+15
95 16 1.6e+15
96 16 5e+14
97 16 8e+14
98 16 5e+14
99 16 3e+14
100 16 1e+14
1 17 2e+14
2 17 2e+14
3 17 6e+14
4 17 4e+14
5 17 3e+14
6 17 9e+14
7 17 4e+14
8 17 8e+14
9 17 1.8e+15
10 17 1.1e+15
11 17 1.1e+15
12 17 1.7e+15
13 17 1.1e+15
14 17 1.2e+15
15 17 1.8e+15
16 17 1.2e+15
17 17 8e+14
18 17 1.1e+15
19 17 1.3e+15
20 17 1.2e+15
21 17 1.4e+15
22 17 1.4e+15
23 17 1.7e+15
24 17 2.2e+15
25 17 2.9e+15
26 17 3.2e+15
27 17 2.8e+15
28 17 1.5e+15
29 17 1.4e+15
30 17 1.3e+15
31 17 1.1e+15
32 17 9e+14
33 17 7e+14
34 17 3e+14
35 17 8e+14
36 17 4e+14
37 17 5e+14
38 17 5e+14
39 17 1.1e+15
40 17 5e+14
41 17 6e+14
42 17 7e+14
43 17 1.2e+15
44 17 7e+14
45 17 1.2e+15
46 17 7e+14
47 17 3e+14
48 17 6e+14
49 17 7e+14
50 17 7e+14
51 17 7e+14
52 17 7e+14
53 17 4e+14
54 17 8e+14
55 17 9e+14
56 17 6e+14
57 17 3e+14
58 17 8e+14
59 17 8e+14
60 17 4e+14
61 17 6e+14
62 17 6e+14
63 17 5e+14
64 17 8e+14
65 17 5e+14
66 17 7e+14
67 17 7e+14
68 17 5e+14
69 17 1.3e+15
70 17 7e+14
71 17 1.6e+15
72 17 1.6e+15
73 17 1.4e+15
74 17 2.1e+15
75 17 4.1e+15
76 17 2.7e+15
77 17 2e+15
78 17 1.5e+15
79 17 2e+15
80 17 1.3e+15
81 17 9e+14
82 17 1.9e+15
83 17 1e+15
84 17 1.8e+15
85 17 7e+14
86 17 1.8e+15
87 17 1.8e+15
88 17 1.4e+15
89 17 1.3e+15
90 17 1.2e+15
91 17 1.7e+15
92 17 1.6e+15
93 17 1.1e+15
94 17 1.3e+15
95 17 9e+14
96 17 3e+14
97 17 3e+14
98 17 4e+14
99 17 1e+14
100 17 2e+14
1 18 5e+14
2 18 2e+14
3 18 2e+14
4 18 5e+14
5 18 4e+14
6 18 8e+14
7 18 9e+14
8 18 1.6e+15
9 18 1.4e+15
10 18 1e+15
11 18 1e+15
12 18 8e+14
13 18 6e+14
14 18 8e+14
15 18 1.3e+15
16 18 1.7e+15
17 18 2.2e+15
18 18 1.4e+15
19 18 7e+14
20 18 1.3e+15
21 18 1.2e+15
22 18 1.7e+15
23 18 2.5e+15
24 18 2.7e+15
25 18 2.1e+15
26 18 2.6e+15
27 18 1.6e+15
28 18 9e+14
29 18 1.8e+15
30 18 6e+14
31 18 7e+14
32 18 5e+14
33 18 1.2e+15
34 18 8e+14
35 18 8e+14
36 18 8e+14
37 18 1.2e+15
38 18 7e+14
39 18 3e+14
40 18 6e+14
41 18 2e+14
42 18 3e+14
43 18 5e+14
44 18 3e+14
45 18 7e+14
46 18 4e+14
47 18 2e+14
48 18 7e+14
49 18 2e+14
50 18 6e+14
51 18 5e+14
52 18 5e+14
53 18 1e+14
54 18 6e+14
55 18 6e+14
56 18 6e+14
57 18 2e+14
58 18 7e+14
59 18 6e+14
60 18 4e+14
61 18 7e+14
62 18 6e+14
63 18 6e+14
64 18 8e+14
65 18 4e+14
66 18 9e+14
67 18 1.2e+15
68 18 9e+14
69 18 9e+14
70 18 9e+14
71 18 1e+15
72 18 1.8e+15
73 18 1.7e+15
74 18 1.2e+15
75 18 2.2e+15
76 18 2.9e+15
77 18 2.6e+15
78 18 1.8e+15
79 18 1.6e+15
80 18 1.3e+15
81 18 1.5e+15
82 18 1.6e+15
83 18 1.3e+15
84 18 1e+15
85 18 1.9e+15
86 18 1.5e+15
87 18 1.2e+15
88 18 2e+15
89 18 1.3e+15
90 18 1.1e+15
91 18 1.5e+15
92 18 1.2e+15
93 18 9e+14
94 18 1.1e+15
95 18 7e+14
96 18 7e+14
97 18 4e+14
98 18 3e+14
99 18 2e+14
100 18 3e+14
1 19 4e+14
2 19 1e+14
3 19 2e+14
4 19 4e+14
5 19 5e+14
6 19 1.1e+15
7 19 1.3e+15
8 19 1.5e+15
9 19 1.3e+15
10 19 1.2e+15
11 19 2.5e+15
12 19 1.8e+15
13 19 1.3e+15
14 19 1.3e+15
15 19 1.8e+15
16 19 1.4e+15
17 19 1.3e+15
18 19 1.6e+15
19 19 2.1e+15
20 19 1.2e+15
21 19 1.6e+15
22 19 1.6e+15
23 19 3.1e+15
24 19 2.2e+15
25 19 1.8e+15
26 19 1.8e+15
27 19 1.8e+15
28 19 1.3e+15
29 19 7e+14
30 19 6e+14
31 19 8e+14
32 19 9e+14
33 19 7e+14
34 19 5e+14
35 19 7e+14
36 19 1e+15
37 19 5e+14
38 19 6e+14
39 19 8e+14
40 19 7e+14
41 19 6e+14
42 19 9e+14
43 19 2.5e+15
44 19 1.5e+15
45 19 1.6e+15
46 19 1.9e+15
47 19 1.5e+15
48 19 1.6e+15
49 19 1.9e+15
50 19 1e+15
51 19 2e+15
52 19 1e+15
53 19 9e+14
54 19 2.2e+15
55 19 9e+14
56 19 1.3e+15
57 19 1.4e+15
58 19 9e+14
59 19 2e+14
60 19 7e+14
61 19 5e+14
62 19 4e+14
63 19 4e+14
64 19 5e+14
65 19 8e+14
66 19 2e+14
67 19 2e+14
68 19 6e+14
69 19 6e+14
70 19 6e+14
71 19 6e+14
72 19 3e+14
73 19 6e+14
74 19 1e+15
75 19 1.3e+15
76 19 2.3e+15
77 19 2.9e+15
78 19 3.8e+15
79 19 2.5e+15
80 19 1.7e+15
81 19 1.3e+15
82 19 1.6e+15
83 19 1.3e+15
84 19 9e+14
85 19 1e+15
86 19 8e+14
87 19 1.2e+15
88 19 1e+15
89 19 1e+15
90 19 3e+14
91 19 1e+15
92 19 1.2e+15
93 19 1.1e+15
94 19 5e+14
95 19 8e+14
96 19 4e+14
97 19 6e+14
98 19 3e+14
99 19 3e+14
100 19 1e+14
1 20 2e+14
2 20 3e+14
3 20 3e+14
4 20 5e+14
5 20 2e+14
6 20 7e+14
7 20 1e+15
8 20 1.2e+15
9 20 1.2e+15
10 20 1.1e+15
11 20 1.6e+15
12 20 1.5e+15
13 20 1.1e+15
14 20 8e+14
15 20 5e+14
16 20 9e+14
17 20 1.4e+15
18 20 1.5e+15
19 20 6e+14
20 20 2e+15
21 20 2.4e+15
22 20 2.5e+15
23 20 2.3e+15
24 20 2.4e+15
25 20 1.5e+15
26 20 1.8e+15
27 20 5e+14
28 20 5e+14
29 20 4e+14
30 20 7e+14
31 20 1e+15
32 20 7e+14
33 20 7e+14
34 20 5e+14
35 20 5e+14
36 20 7e+14
37 20 8e+14
38 20 1.1e+15
39 20 1.7e+15
40 20 1.7e+15
41 20 1.5e+15
42 20 1.5e+15
43 20 1.2e+15
44 20 1e+15
45 20 1.7e+15
46 20 8e+14
47 20 1.3e+15
48 20 1.1e+15
49 20 1.2e+15
50 20 1.3e+15
51 20 7e+14
52 20 9e+14
53 20 5e+14
54 20 1.2e+15
55 20 1.1e+15
56 20 1.8e+15
57 20 1.5e+15
58 20 1.4e+15
59 20 1.9e+15
60 20 1.2e+15
61 20 1.7e+15
62 20 1e+15
63 20 7e+14
64 20 4e+14
65 20 8e+14
66 20 5e+14
67 20 6e+14
68 20 4e+14
69 20 8e+14
70 20 7e+14
71 20 1.1e+15
72 20 9e+14
73 20 1e+15
74 20 1.1e+15
75 20 1.7e+15
76 20 1.6e+15
77 20 1.7e+15
78 20 2.9e+15
79 20 3.3e+15
80 20 1.9e+15
81 20 1.3e+15
82 20 1.3e+15
83 20 1.1e+15
84 20 1.6e+15
85 20 1.5e+15
86 20 1.3e+15
87 20 1.6e+15
88 20 7e+14
89 20 1.5e+15
90 20 1.3e+15
91 20 2.1e+15
92 20 1.6e+15
93 20 1.3e+15
94 20 1.1e+15
95 20 6e+14
96 20 2e+14
97 20 4e+14
98 20 3e+14
99 20 1e+14
100 20 4e+14
1 21 0
2 21 2e+14
3 21 3e+14
4 21 5e+14
5 21 5e+14
6 21 4e+14
7 21 9e+14
8 21 1.3e+15
9 21 1.2e+15
10 21 1.1e+15
11 21 8e+14
12 21 6e+14
13 21 1.1e+15
14 21 1.9e+15
15 21 1e+15
16 21 1.1e+15
17 21 1.7e+15
18 21 1.5e+15
19 21 1.6e+15
20 21 2.4e+15
21 21 3.9e+15
22 21 2e+15
23 21 1.8e+15
24 21 1e+15
25 21 1.6e+15
26 21 8e+14
27 21 1e+15
28 21 1.7e+15
29 21 8e+14
30 21 1.3e+15
31 21 7e+14
32 21 4e+14
33 21 4e+14
34 21 1e+15
35 21 5e+14
36 21 7e+14
37 21 2.2e+15
38 21 1.1e+15
39 21 1.7e+15
40 21 1.6e+15
41 21 1.1e+15
42 21 9e+14
43 21 9e+14
44 21 1e+15
45 21 8e+14
46 21 5e+14
47 21 1.8e+15
48 21 1e+15
49 21 1e+15
50 21 6e+14
51 21 1.3e+15
52 21 1.4e+15
53 21 7e+14
54 21 1.1e+15
55 21 2.5e+15
56 21 5e+14
57 21 1.3e+15
58 21 1e+15
59 21 1.7e+15
60 21 1e+15
61 21 1e+15
62 21 1.5e+15
63 21 1.2e+15
64 21 1.6e+15
65 21 1.9e+15
66 21 1.6e+15
67 21 4e+14
68 21 1e+15
69 21 8e+14
70 21 6e+14
71 21 9e+14
72 21 6e+14
73 21 9e+14
74 21 2e+14
75 21 6e+14
76 21 7e+14
77 21 1.5e+15
78 21 2e+15
79 21 2.1e+15
80 21 2.9e+15
81 21 2.4e+15
82 21 1.7e+15
83 21 1.8e+15
84 21 9e+14
85 21 1e+15
86 21 1.6e+15
87 21 9e+14
88 21 1.2e+15
89 21 1.4e+15
90 21 1.1e+15
91 21 1.4e+15
92 21 1.3e+15
93 21 1.1e+15
94 21 1.7e+15
95 21 6e+14
96 21 4e+14
97 21 5e+14
98 21 3e+14
99 21 3e+14
100 21 1e+14
1 22 2e+14
2 22 2e+14
3 22 1e+14
4 22 3e+14
5 22 7e+14
6 22 3e+14
7 22 6e+14
8 22 9e+14
9 22 1.5e+15
10 22 1.6e+15
11 22 1.4e+15
12 22 1.3e+15
13 22 1.7e+15
14 22 1.4e+15
15 22 2.4e+15
16 22 1.2e+15
17 22 1.9e+15
18 22 1.9e+15
19 22 2.8e+15
20 22 3.2e+15
21 22 2.4e+15
22 22 1.8e+15
23 22 1.8e+15
24 22 1.1e+15
25 22 7e+14
26 22 1e+15
27 22 7e+14
28 22 1e+15
29 22 2e+14
30 22 3e+14
31 22 6e+14
32 22 7e+14
33 22 3e+14
34 22 7e+14
35 22 2.3e+15
36 22 2.3e+15
37 22 1.4e+15
38 22 1.4e+15
39 22 1.2e+15
40 22 7e+14
41 22 1.2e+15
42 22 1e+15
43 22 1.3e+15
44 22 8e+14
45 22 1.1e+15
46 22 5e+14
47 22 7e+14
48 22 1.1e+15
49 22 1.8e+15
50 22 8e+14
51 22 9e+14
52 22 8e+14
53 22 9e+14
54 22 8e+14
55 22 9e+14
56 22 9e+14
57 22 1.2e+15
58 22 1.3e+15
59 22 9e+14
60 22 9e+14
61 22 1.2e+15
62 22 7e+14
63 22 1.2e+15
64 22 1.1e+15
65 22 1.2e+15
66 22 1.4e+15
67 22 8e+14
68 22 1.1e+15
69 22 3e+14
70 22 5e+14
71 22 6e+14
72 22 6e+14
73 22 7e+14
74 22 1.4e+15
75 22 1.3e+15
76 22 1.2e+15
77 22 7e+14
78 22 1.8e+15
79 22 1.5e+15
80 22 2e+15
81 22 5.7e+15
82 22 2.7e+15
83 22 1.7e+15
84 22 8e+14
85 22 1.5e+15
86 22 1.6e+15
87 22 1.2e+15
88 22 1.4e+15
89 22 1.4e+15
90 22 1e+15
91 22 1.2e+15
92 22 1.2e+15
93 22 1.2e+15
94 22 6e+14
95 22 6e+14
96 22 3e+14
97 22 4e+14
98 22 2e+14
99 22 4e+14
100 22 3e+14
1 23 4e+14
2 23 0
3 23 3e+14
4 23 3e+14
5 23 3e+14
6 23 8e+14
7 23 7e+14
8 23 1.3e+15
9 23 1.1e+15
10 23 1.3e+15
11 23 1e+15
12 23 1.1e+15
13 23 1.4e+15
14 23 8e+14
15 23 6e+14
16 23 1.1e+15
17 23 1.8e+15
18 23 2.6e+15
19 23 3.8e+15
20 23 2.7e+15
21 23 2e+15
22 23 1.8e+15
23 23 1e+15
24 23 1.2e+15
25 23 8e+14
26 23 1.1e+15
27 23 8e+14
28 23 4e+14
29 23 6e+14
30 23 7e+14
31 23 6e+14
32 23 1.8e+15
33 23 2.1e+15
34 23 1.6e+15
35 23 1.2e+15
36 23 1.3e+15
37 23 1.2e+15
38 23 6e+14
39 23 7e+14
40 23 8e+14
41 23 8e+14
42 23 1.3e+15
43 23 1.1e+15
44 23 7e+14
45 23 8e+14
46 23 1e+15
47 23 9e+14
48 23 1e+15
49 23 6e+14
50 23 1e+15
51 23 1.2e+15
52 23 1.2e+15
53 23 8e+14
54 23 8e+14
55 23 6e+14
56 23 8e+14
57 23 5e+14
58 23 1.1e+15
59 23 1e+15
60 23 1.4e+15
61 23 1.2e+15
62 23 1.1e+15
63 23 8e+14
64 23 2e+15
65 23 1.4e+15
66 23 1.4e+15
67 23 1.2e+15
68 23 2e+15
69 23 3e+14
70 23 5e+14
71 23 4e+14
72 23 6e+14
73 23 6e+14
74 23 7e+14
75 23 4e+14
76 23 7e+14
77 23 1.3e+15
78 23 1.2e+15
79 23 1.8e+15
80 23 2.2e+15
81 23 2.6e+15
82 23 2.6e+15
83 23 1.9e+15
84 23 2e+15
85 23 1.9e+15
86 23 1e+15
87 23 1.7e+15
88 23 1.5e+15
89 23 1.3e+15
90 23 1.7e+15
91 23 1.5e+15
92 23 1.5e+15
93 23 8e+14
94 23 5e+14
95 23 5e+14
96 23 4e+14
97 23 2e+14
98 23 2e+14
99 23 1e+14
100 23 1e+14
1 24 5e+14
2 24 2e+14
3 24 2e+14
4 24 6e+14
5 24 6e+14
6 24 2e+14
7 24 4e+14
8 24 1e+15
9 24 1.1e+15
10 24 1e+15
11 24 1.4e+15
12 24 1e+15
13 24 1.5e+15
14 24 2e+15
15 24 1.5e+15
16 24 1.3e+15
17 24 1.3e+15
18 24 2.7e+15
19 24 2.5e+15
20 24 1.5e+15
21 24 2.4e+15
22 24 1e+15
23 24 7e+14
24 24 1e+15
25 24 7e+14
26 24 4e+14
27 24 7e+14
28 24 4e+14
29 24 9e+14
30 24 1.5e+15
31 24 9e+14
32 24 1.5e+15
33 24 1.6e+15
34 24 8e+14
35 24 3e+14
36 24 1.3e+15
37 24 7e+14
38 24 1.1e+15
39 24 8e+14
40 24 1.2e+15
41 24 9e+14
42 24 1.1e+15
43 24 6e+14
44 24 1.2e+15
45 24 1.4e+15
46 24 8e+14
47 24 1e+15
48 24 1.3e+15
49 24 1e+15
50 24 9e+14
51 24 1.2e+15
52 24 1.3e+15
53 24 1e+15
54 24 1.7e+15
55 24 1.3e+15
56 24 1.2e+15
57 24 1.1e+15
58 24 6e+14
59 24 1.2e+15
60 24 1.2e+15
61 24 7e+14
62 24 1.5e+15
63 24 7e+14
64 24 1e+15
65 24 1.1e+15
66 24 9e+14
67 24 1.3e+15
68 24 7e+14
69 24 2.2e+15
70 24 2.7e+15
71 24 9e+14
72 24 5e+14
73 24 8e+14
74 24 4e+14
75 24 3e+14
76 24 3e+14
77 24 4e+14
78 24 1.4e+15
79 24 8e+14
80 24 1.3e+15
81 24 1.3e+15
82 24 2.6e+15
83 24 2.4e+15
84 24 1.9e+15
85 24 6e+14
86 24 1.4e+15
87 24 1.4e+15
88 24 7e+14
89 24 1.2e+15
90 24 1.8e+15
91 24 8e+14
92 24 1e+15
93 24 8e+14
94 24 3e+14
95 24 5e+14
96 24 1e+14
97 24 2e+14
98 24 1e+14
99 24 1e+14
100 24 2e+14
1 25 0
2 25 3e+14
3 25 2e+14
4 25 2e+14
5 25 4e+14
6 25 4e+14
7 25 8e+14
8 25 6e+14
9 25 1.1e+15
10 25 1.3e+15
11 25 1.6e+15
12 25 1.1e+15
13 25 9e+14
14 25 1.2e+15
15 25 1.6e+15
16 25 2.3e+15
17 25 4.3e+15
18 25 2.5e+15
19 25 2.3e+15
20 25 8e+14
21 25 9e+14
22 25 1e+15
23 25 9e+14
24 25 7e+14
25 25 7e+14
26 25 6e+14
27 25 5e+14
28 25 6e+14
29 25 1.8e+15
30 25 1e+15
31 25 1.2e+15
32 25 1.5e+15
33 25 1e+15
34 25 1.1e+15
35 25 1.6e+15
36 25 1.1e+15
37 25 1e+15
38 25 1.1e+15
39 25 9e+14
40 25 1.2e+15
41 25 1.7e+15
42 25 1.8e+15
43 25 1.2e+15
44 25 7e+14