title="Potential"
variables = "x","y","V"
zone i=101,j=101,f=point
1 1 0
2 1 0
3 1 0
4 1 0
5 1 0
6 1 0
7 1 0
8 1 0
9 1 0
10 1 0
11 1 0
12 1 0
13 1 0
14 1 0
15 1 0
16 1 0
17 1 0
18 1 0
19 1 0
20 1 0
21 1 0
22 1 0
23 1 0
24 1 0
25 1 0
26 1 0
27 1 0
28 1 0
29 1 0
30 1 0
31 1 0
32 1 0
33 1 0
34 1 0
35 1 0
36 1 0
37 1 0
38 1 0
39 1 0
40 1 0
41 1 0
42 1 0
43 1 0
44 1 0
45 1 0
46 1 0
47 1 0
48 1 0
49 1 0
50 1 0
51 1 0
52 1 0
53 1 0
54 1 0
55 1 0
56 1 0
57 1 0
58 1 0
59 1 0
60 1 0
61 1 0
62 1 0
63 1 0
64 1 0
65 1 0
66 1 0
67 1 0
68 1 0
69 1 0
70 1 0
71 1 0
72 1 0
73 1 0
74 1 0
75 1 0
76 1 0
77 1 0
78 1 0
79 1 0
80 1 0
81 1 0
82 1 0
83 1 0
84 1 0
85 1 0
86 1 0
87 1 0
88 1 0
89 1 0
90 1 0
91 1 0
92 1 0
93 1 0
94 1 0
95 1 0
96 1 0
97 1 0
98 1 0
99 1 0
100 1 0
101 1 0
1 2 0
2 2 -0.00370002
3 2 -0.00739611
4 2 -0.0110896
5 2 -0.0147805
6 2 -0.0184718
7 2 -0.0221618
8 2 -0.0258501
9 2 -0.0295362
10 2 -0.0332215
11 2 -0.0369011
12 2 -0.0405767
13 2 -0.0442486
14 2 -0.0479145
15 2 -0.0515719
16 2 -0.0552193
17 2 -0.0588545
18 2 -0.062476
19 2 -0.0660804
20 2 -0.0696653
21 2 -0.0732252
22 2 -0.0767588
23 2 -0.08026
24 2 -0.0837241
25 2 -0.0871477
26 2 -0.090527
27 2 -0.0938559
28 2 -0.0971246
29 2 -0.10033
30 2 -0.103468
31 2 -0.106531
32 2 -0.109508
33 2 -0.112393
34 2 -0.11518
35 2 -0.11786
36 2 -0.120429
37 2 -0.122874
38 2 -0.12519
39 2 -0.127371
40 2 -0.129406
41 2 -0.131293
42 2 -0.133021
43 2 -0.134587
44 2 -0.135986
45 2 -0.137211
46 2 -0.138255
47 2 -0.139116
48 2 -0.13979
49 2 -0.140271
50 2 -0.140563
51 2 -0.140662
52 2 -0.140568
53 2 -0.140279
54 2 -0.139799
55 2 -0.139132
56 2 -0.138278
57 2 -0.137238
58 2 -0.136018
59 2 -0.134624
60 2 -0.133059
61 2 -0.131332
62 2 -0.129449
63 2 -0.127414
64 2 -0.125238
65 2 -0.122924
66 2 -0.120478
67 2 -0.11791
68 2 -0.115231
69 2 -0.112449
70 2 -0.109565
71 2 -0.106592
72 2 -0.103534
73 2 -0.100397
74 2 -0.0971916
75 2 -0.0939239
76 2 -0.0905986
77 2 -0.0872189
78 2 -0.0837914
79 2 -0.0803248
80 2 -0.0768241
81 2 -0.0732917
82 2 -0.0697313
83 2 -0.0661458
84 2 -0.0625406
85 2 -0.0589186
86 2 -0.0552817
87 2 -0.0516333
88 2 -0.0479742
89 2 -0.0443062
90 2 -0.0406332
91 2 -0.0369547
92 2 -0.0332732
93 2 -0.0295864
94 2 -0.0258961
95 2 -0.0222034
96 2 -0.0185092
97 2 -0.0148137
98 2 -0.011115
99 2 -0.00741464
100 2 -0.00370961
101 2 0
1 3 0
2 3 -0.00739596
3 3 -0.0147873
4 3 -0.0221724
5 3 -0.0295553
6 3 -0.0369385
7 3 -0.044318
8 3 -0.0516935
9 3 -0.0590683
10 3 -0.0664379
11 3 -0.0737985
12 3 -0.0811528
13 3 -0.0884975
14 3 -0.0958301
15 3 -0.103146
16 3 -0.110441
17 3 -0.117713
18 3 -0.124959
19 3 -0.132171
20 3 -0.139343
21 3 -0.146466
22 3 -0.153538
23 3 -0.160544
24 3 -0.16748
25 3 -0.174335
26 3 -0.181099
27 3 -0.18776
28 3 -0.194305
29 3 -0.200725
30 3 -0.207007
31 3 -0.213135
32 3 -0.219095
33 3 -0.224874
34 3 -0.230457
35 3 -0.235827
36 3 -0.240969
37 3 -0.245866
38 3 -0.250507
39 3 -0.254875
40 3 -0.258958
41 3 -0.262735
42 3 -0.2662
43 3 -0.269339
44 3 -0.272141
45 3 -0.274592
46 3 -0.276683
47 3 -0.278408
48 3 -0.279758
49 3 -0.280725
50 3 -0.281309
51 3 -0.281506
52 3 -0.281316
53 3 -0.280739
54 3 -0.279779
55 3 -0.278441
56 3 -0.276728
57 3 -0.274641
58 3 -0.272196
59 3 -0.269401
60 3 -0.266267
61 3 -0.262808
62 3 -0.259034
63 3 -0.254959
64 3 -0.250599
65 3 -0.245961
66 3 -0.241063
67 3 -0.235922
68 3 -0.23056
69 3 -0.224986
70 3 -0.219211
71 3 -0.213255
72 3 -0.207132
73 3 -0.200855
74 3 -0.194438
75 3 -0.187895
76 3 -0.181237
77 3 -0.174472
78 3 -0.167616
79 3 -0.160679
80 3 -0.153672
81 3 -0.146602
82 3 -0.139477
83 3 -0.132302
84 3 -0.125089
85 3 -0.117842
86 3 -0.110565
87 3 -0.103264
88 3 -0.0959441
89 3 -0.0886084
90 3 -0.081261
91 3 -0.0739025
92 3 -0.0665347
93 3 -0.0591597
94 3 -0.0517787
95 3 -0.0443952
96 3 -0.0370092
97 3 -0.029616
98 3 -0.0222197
99 3 -0.0148202
100 3 -0.00741462
101 3 0
1 4 0
2 4 -0.0110893
3 4 -0.0221735
4 4 -0.0332507
5 4 -0.0443267
6 4 -0.0554002
7 4 -0.0664709
8 4 -0.0775361
9 4 -0.0885973
10 4 -0.0996509
11 4 -0.110696
12 4 -0.12173
13 4 -0.13275
14 4 -0.14375
15 4 -0.154728
16 4 -0.165677
17 4 -0.176592
18 4 -0.187468
19 4 -0.198293
20 4 -0.209059
21 4 -0.219755
22 4 -0.230372
23 4 -0.240895
24 4 -0.251312
25 4 -0.261608
26 4 -0.271766
27 4 -0.281772
28 4 -0.291608
29 4 -0.301253
30 4 -0.310691
31 4 -0.319898
32 4 -0.328858
33 4 -0.337547
34 4 -0.345939
35 4 -0.354011
36 4 -0.361742
37 4 -0.36911
38 4 -0.376091
39 4 -0.382661
40 4 -0.388801
41 4 -0.394484
42 4 -0.399699
43 4 -0.404423
44 4 -0.408636
45 4 -0.412326
46 4 -0.415472
47 4 -0.418068
48 4 -0.420096
49 4 -0.421555
50 4 -0.422433
51 4 -0.42273
52 4 -0.422444
53 4 -0.421575
54 4 -0.420131
55 4 -0.418117
56 4 -0.415534
57 4 -0.412395
58 4 -0.408715
59 4 -0.40451
60 4 -0.399799
61 4 -0.394597
62 4 -0.388918
63 4 -0.382785
64 4 -0.376218
65 4 -0.369242
66 4 -0.361879
67 4 -0.354155
68 4 -0.346092
69 4 -0.337708
70 4 -0.329029
71 4 -0.320078
72 4 -0.310876
73 4 -0.301444
74 4 -0.291802
75 4 -0.28197
76 4 -0.271964
77 4 -0.261803
78 4 -0.25151
79 4 -0.241094
80 4 -0.23057
81 4 -0.219955
82 4 -0.209256
83 4 -0.198485
84 4 -0.187658
85 4 -0.176781
86 4 -0.165861
87 4 -0.154905
88 4 -0.143921
89 4 -0.132912
90 4 -0.121884
91 4 -0.110842
92 4 -0.0997894
93 4 -0.0887264
94 4 -0.0776554
95 4 -0.0665797
96 4 -0.0554988
97 4 -0.0444114
98 4 -0.0333184
99 4 -0.0222199
100 4 -0.0111144
101 4 0
1 5 0
2 5 -0.0147807
3 5 -0.0295568
4 5 -0.0443264
5 5 -0.0590948
6 5 -0.0738588
7 5 -0.088619
8 5 -0.103373
9 5 -0.118122
10 5 -0.132864
11 5 -0.147595
12 5 -0.162311
13 5 -0.17701
14 5 -0.191685
15 5 -0.206331
16 5 -0.22094
17 5 -0.235506
18 5 -0.250018
19 5 -0.264465
20 5 -0.278837
21 5 -0.293118
22 5 -0.307292
23 5 -0.321343
24 5 -0.335255
25 5 -0.349008
26 5 -0.362578
27 5 -0.375948
28 5 -0.389091
29 5 -0.401982
30 5 -0.414595
31 5 -0.426906
32 5 -0.438889
33 5 -0.450509
34 5 -0.461731
35 5 -0.472528
36 5 -0.482873
37 5 -0.492731
38 5 -0.502073
39 5 -0.510869
40 5 -0.519087
41 5 -0.526701
42 5 -0.533683
43 5 -0.540006
44 5 -0.545652
45 5 -0.550592
46 5 -0.554807
47 5 -0.558281
48 5 -0.561
49 5 -0.562957
50 5 -0.564133
51 5 -0.564532
52 5 -0.564147
53 5 -0.562982
54 5 -0.561049
55 5 -0.558347
56 5 -0.554885
57 5 -0.550681
58 5 -0.545753
59 5 -0.540122
60 5 -0.533813
61 5 -0.526846
62 5 -0.51924
63 5 -0.511029
64 5 -0.502239
65 5 -0.492907
66 5 -0.483056
67 5 -0.472721
68 5 -0.461931
69 5 -0.450719
70 5 -0.439111
71 5 -0.427142
72 5 -0.41484
73 5 -0.40223
74 5 -0.389341
75 5 -0.376202
76 5 -0.362835
77 5 -0.349264
78 5 -0.335513
79 5 -0.321603
80 5 -0.307551
81 5 -0.293377
82 5 -0.279093
83 5 -0.264718
84 5 -0.250269
85 5 -0.235753
86 5 -0.221183
87 5 -0.206564
88 5 -0.191907
89 5 -0.177223
90 5 -0.162514
91 5 -0.147785
92 5 -0.133045
93 5 -0.118291
94 5 -0.103527
95 5 -0.0887587
96 5 -0.0739832
97 5 -0.059202
98 5 -0.0444119
99 5 -0.0296167
100 5 -0.0148131
101 5 0
1 6 0
2 6 -0.0184715
3 6 -0.036938
4 6 -0.0553996
5 6 -0.0738591
6 6 -0.0923127
7 6 -0.110764
8 6 -0.12921
9 6 -0.147649
10 6 -0.16608
11 6 -0.184499
12 6 -0.202904
13 6 -0.221287
14 6 -0.239643
15 6 -0.257963
16 6 -0.276241
17 6 -0.294466
18 6 -0.312627
19 6 -0.330709
20 6 -0.3487
21 6 -0.366578
22 6 -0.384325
23 6 -0.401924
24 6 -0.419352
25 6 -0.436579
26 6 -0.453584
27 6 -0.47034
28 6 -0.486815
29 6 -0.502978
30 6 -0.5188
31 6 -0.534244
32 6 -0.549275
33 6 -0.563851
34 6 -0.577936
35 6 -0.59149
36 6 -0.604479
37 6 -0.616859
38 6 -0.628593
39 6 -0.639643
40 6 -0.649971
41 6 -0.659538
42 6 -0.668312
43 6 -0.676263
44 6 -0.683362
45 6 -0.689573
46 6 -0.694874
47 6 -0.699242
48 6 -0.702664
49 6 -0.705121
50 6 -0.706602
51 6 -0.707105
52 6 -0.706619
53 6 -0.705155
54 6 -0.70272
55 6 -0.69932
56 6 -0.694968
57 6 -0.689684
58 6 -0.683489
59 6 -0.676408
60 6 -0.668476
61 6 -0.659715
62 6 -0.650159
63 6 -0.639842
64 6 -0.628799
65 6 -0.617077
66 6 -0.604706
67 6 -0.59173
68 6 -0.578186
69 6 -0.564113
70 6 -0.549547
71 6 -0.534531
72 6 -0.519097
73 6 -0.503285
74 6 -0.487125
75 6 -0.470653
76 6 -0.453899
77 6 -0.436894
78 6 -0.419666
79 6 -0.402242
80 6 -0.384644
81 6 -0.366892
82 6 -0.349012
83 6 -0.33102
84 6 -0.312935
85 6 -0.29477
86 6 -0.276536
87 6 -0.258245
88 6 -0.239914
89 6 -0.221546
90 6 -0.20315
91 6 -0.184733
92 6 -0.1663
93 6 -0.147853
94 6 -0.129396
95 6 -0.110934
96 6 -0.092464
97 6 -0.0739859
98 6 -0.0555021
99 6 -0.0370098
100 6 -0.0185119
101 6 0
1 7 0
2 7 -0.022161
3 7 -0.0443172
4 7 -0.0664689
5 7 -0.0886173
6 7 -0.110763
7 7 -0.132906
8 7 -0.155044
9 7 -0.177176
10 7 -0.199299
11 7 -0.221411
12 7 -0.243508
13 7 -0.265583
14 7 -0.287624
15 7 -0.309628
16 7 -0.331586
17 7 -0.353485
18 7 -0.375309
19 7 -0.397042
20 7 -0.418667
21 7 -0.440161
22 7 -0.461504
23 7 -0.482672
24 7 -0.503636
25 7 -0.524366
26 7 -0.544835
27 7 -0.565007
28 7 -0.584846
29 7 -0.604316
30 7 -0.623378
31 7 -0.641989
32 7 -0.660103
33 7 -0.677675
34 7 -0.694659
35 7 -0.71101
36 7 -0.726683
37 7 -0.741624
38 7 -0.755789
39 7 -0.769132
40 7 -0.781604
41 7 -0.793162
42 7 -0.803764
43 7 -0.813375
44 7 -0.821951
45 7 -0.829457
46 7 -0.835864
47 7 -0.841146
48 7 -0.845284
49 7 -0.848253
50 7 -0.850043
51 7 -0.850647
52 7 -0.850062
53 7 -0.848296
54 7 -0.845349
55 7 -0.841235
56 7 -0.835974
57 7 -0.829586
58 7 -0.822097
59 7 -0.813539
60 7 -0.803952
61 7 -0.793368
62 7 -0.781826
63 7 -0.769365
64 7 -0.756036
65 7 -0.741884
66 7 -0.726956
67 7 -0.7113
68 7 -0.694963
69 7 -0.677989
70 7 -0.660425
71 7 -0.642324
72 7 -0.623724
73 7 -0.604673
74 7 -0.585208
75 7 -0.565374
76 7 -0.545205
77 7 -0.524739
78 7 -0.504007
79 7 -0.483044
80 7 -0.461876
81 7 -0.440528
82 7 -0.419031
83 7 -0.397404
84 7 -0.375669
85 7 -0.353838
86 7 -0.331929
87 7 -0.30996
88 7 -0.287943
89 7 -0.265885
90 7 -0.243797
91 7 -0.221686
92 7 -0.199556
93 7 -0.177414
94 7 -0.155262
95 7 -0.133103
96 7 -0.110936
97 7 -0.0887631
98 7 -0.0665853
99 7 -0.0443992
100 7 -0.0222049
101 7 0
1 8 0
2 8 -0.0258497
3 8 -0.0516942
4 8 -0.0775343
5 8 -0.103372
6 8 -0.129208
7 8 -0.155044
8 8 -0.180877
9 8 -0.206702
10 8 -0.232522
11 8 -0.258332
12 8 -0.284127
13 8 -0.309898
14 8 -0.335636
15 8 -0.361339
16 8 -0.386989
17 8 -0.412574
18 8 -0.438076
19 8 -0.463477
20 8 -0.488755
21 8 -0.513888
22 8 -0.538849
23 8 -0.563612
24 8 -0.588144
25 8 -0.61241
26 8 -0.636376
27 8 -0.659999
28 8 -0.68324
29 8 -0.706056
30 8 -0.728399
31 8 -0.750218
32 8 -0.771461
33 8 -0.792078
34 8 -0.81201
35 8 -0.831205
36 8 -0.849606
37 8 -0.867157
38 8 -0.883801
39 8 -0.899482
40 8 -0.914143
41 8 -0.927735
42 8 -0.940207
43 8 -0.95151
44 8 -0.9616
45 8 -0.970432
46 8 -0.977971
47 8 -0.984191
48 8 -0.989057
49 8 -0.992551
50 8 -0.99466
51 8 -0.995373
52 8 -0.994687
53 8 -0.992605
54 8 -0.989132
55 8 -0.984287
56 8 -0.978094
57 8 -0.970577
58 8 -0.961765
59 8 -0.9517
60 8 -0.940422
61 8 -0.927973
62 8 -0.914398
63 8 -0.899753
64 8 -0.884089
65 8 -0.867459
66 8 -0.849925
67 8 -0.831539
68 8 -0.81236
69 8 -0.792439
70 8 -0.771835
71 8 -0.750603
72 8 -0.728797
73 8 -0.706467
74 8 -0.68366
75 8 -0.660421
76 8 -0.6368
77 8 -0.612836
78 8 -0.588568
79 8 -0.564036
80 8 -0.539273
81 8 -0.514307
82 8 -0.48917
83 8 -0.463889
84 8 -0.438483
85 8 -0.412974
86 8 -0.387378
87 8 -0.361718
88 8 -0.336002
89 8 -0.310245
90 8 -0.284457
91 8 -0.258645
92 8 -0.232814
93 8 -0.206973
94 8 -0.181123
95 8 -0.155267
96 8 -0.129402
97 8 -0.103535
98 8 -0.0776636
99 8 -0.0517847
100 8 -0.025898
101 8 0
1 9 0
2 9 -0.0295366
3 9 -0.059068
4 9 -0.088596
5 9 -0.118122
6 9 -0.147649
7 9 -0.177178
8 9 -0.206704
9 9 -0.236226
10 9 -0.265747
11 9 -0.29526
12 9 -0.324758
13 9 -0.354235
14 9 -0.383682
15 9 -0.413091
16 9 -0.442447
17 9 -0.471734
18 9 -0.500932
19 9 -0.530022
20 9 -0.558977
21 9 -0.587774
22 9 -0.616384
23 9 -0.644773
24 9 -0.672906
25 9 -0.700747
26 9 -0.728247
27 9 -0.755363
28 9 -0.782053
29 9 -0.808261
30 9 -0.833932
31 9 -0.859011
32 9 -0.883439
33 9 -0.907151
34 9 -0.930087
35 9 -0.952184
36 9 -0.973374
37 9 -0.993591
38 9 -1.01277
39 9 -1.03084
40 9 -1.04775
41 9 -1.06343
42 9 -1.07781
43 9 -1.09085
44 9 -1.1025
45 9 -1.11269
46 9 -1.12139
47 9 -1.12857
48 9 -1.13419
49 9 -1.13823
50 9 -1.14066
51 9 -1.14149
52 9 -1.14069
53 9 -1.13829
54 9 -1.13428
55 9 -1.12868
56 9 -1.12153
57 9 -1.11285
58 9 -1.10268
59 9 -1.09107
60 9 -1.07805
61 9 -1.06369
62 9 -1.04803
63 9 -1.03115
64 9 -1.01309
65 9 -0.993933
66 9 -0.973738
67 9 -0.952569
68 9 -0.930489
69 9 -0.907564
70 9 -0.883864
71 9 -0.859449
72 9 -0.834386
73 9 -0.808723
74 9 -0.782521
75 9 -0.755835
76 9 -0.728721
77 9 -0.701221
78 9 -0.673385
79 9 -0.645254
80 9 -0.616864
81 9 -0.588249
82 9 -0.559447
83 9 -0.530486
84 9 -0.501389
85 9 -0.47218
86 9 -0.442882
87 9 -0.413515
88 9 -0.38409
89 9 -0.354625
90 9 -0.325127
91 9 -0.295605
92 9 -0.26607
93 9 -0.236528
94 9 -0.206976
95 9 -0.17742
96 9 -0.14786
97 9 -0.1183
98 9 -0.0887366
99 9 -0.0591656
100 9 -0.0295884
101 9 0
1 10 0
2 10 -0.0332211
3 10 -0.0664364
4 10 -0.0996492
5 10 -0.132862
6 10 -0.166079
7 10 -0.1993
8 10 -0.232521
9 10 -0.265746
10 10 -0.298971
11 10 -0.332191
12 10 -0.365402
13 10 -0.398596
14 10 -0.431763
15 10 -0.464892
16 10 -0.49797
17 10 -0.530975
18 10 -0.563891
19 10 -0.596691
20 10 -0.62935
21 10 -0.661842
22 10 -0.694133
23 10 -0.726185
24 10 -0.757959
25 10 -0.789412
26 10 -0.820493
27 10 -0.851153
28 10 -0.881338
29 10 -0.910991
30 10 -0.940049
31 10 -0.96845
32 10 -0.996122
33 10 -1.02299
34 10 -1.049
35 10 -1.07406
36 10 -1.09811
37 10 -1.12105
38 10 -1.14283
39 10 -1.16336
40 10 -1.18257
41 10 -1.20039
42 10 -1.21675
43 10 -1.23158
44 10 -1.24483
45 10 -1.25643
46 10 -1.26634
47 10 -1.27451
48 10 -1.2809
49 10 -1.2855
50 10 -1.28827
51 10 -1.28921
52 10 -1.28831
53 10 -1.28557
54 10 -1.281
55 10 -1.27463
56 10 -1.26649
57 10 -1.25661
58 10 -1.24504
59 10 -1.23182
60 10 -1.21702
61 10 -1.20069
62 10 -1.18289
63 10 -1.1637
64 10 -1.14319
65 10 -1.12144
66 10 -1.09851
67 10 -1.07449
68 10 -1.04944
69 10 -1.02346
70 10 -0.996596
71 10 -0.968939
72 10 -0.940554
73 10 -0.911503
74 10 -0.881856
75 10 -0.851675
76 10 -0.821021
77 10 -0.78994
78 10 -0.75849
79 10 -0.726717
80 10 -0.694665
81 10 -0.66237
82 10 -0.629872
83 10 -0.597203
84 10 -0.564392
85 10 -0.531464
86 10 -0.498447
87 10 -0.465357
88 10 -0.43221
89 10 -0.399023
90 10 -0.365809
91 10 -0.332573
92 10 -0.299328
93 10 -0.266078
94 10 -0.232821
95 10 -0.199565
96 10 -0.16631
97 10 -0.133057
98 10 -0.0998016
99 10 -0.0665417
100 10 -0.033275
101 10 0
1 11 0
2 11 -0.0369021
3 11 -0.073797
4 11 -0.110693
5 11 -0.147592
6 11 -0.184498
7 11 -0.22141
8 11 -0.25833
9 11 -0.295258
10 11 -0.332191
11 11 -0.369127
12 11 -0.406057
13 11 -0.442976
14 11 -0.479876
15 11 -0.516741
16 11 -0.553555
17 11 -0.5903
18 11 -0.626954
19 11 -0.663494
20 11 -0.699887
21 11 -0.736107
22 11 -0.772113
23 11 -0.807867
24 11 -0.843325
25 11 -0.878439
26 11 -0.913151
27 11 -0.947406
28 11 -0.981148
29 11 -1.01431
30 11 -1.04682
31 11 -1.07861
32 11 -1.10959
33 11 -1.1397
34 11 -1.16885
35 11 -1.19695
36 11 -1.22392
37 11 -1.24968
38 11 -1.27413
39 11 -1.29719
40 11 -1.31878
41 11 -1.33882
42 11 -1.35721
43 11 -1.37389
44 11 -1.38879
45 11 -1.40185
46 11 -1.41301
47 11 -1.42221
48 11 -1.42941
49 11 -1.43459
50 11 -1.43771
51 11 -1.43877
52 11 -1.43775
53 11 -1.43466
54 11 -1.42951
55 11 -1.42234
56 11 -1.41318
57 11 -1.40206
58 11 -1.38903
59 11 -1.37416
60 11 -1.3575
61 11 -1.33913
62 11 -1.31913
63 11 -1.29757
64 11 -1.27453
65 11 -1.2501
66 11 -1.22437
67 11 -1.19742
68 11 -1.16934
69 11 -1.14021
70 11 -1.11012
71 11 -1.07915
72 11 -1.04737
73 11 -1.01487
74 11 -0.981719
75 11 -0.947985
76 11 -0.913731
77 11 -0.879017
78 11 -0.843906
79 11 -0.808448
80 11 -0.772693
81 11 -0.736678
82 11 -0.700454
83 11 -0.664051
84 11 -0.627502
85 11 -0.590834
86 11 -0.554073
87 11 -0.517241
88 11 -0.480358
89 11 -0.443439
90 11 -0.406497
91 11 -0.36954
92 11 -0.332579
93 11 -0.295617
94 11 -0.258656
95 11 -0.2217
96 11 -0.184749
97 11 -0.147801
98 11 -0.110856
99 11 -0.0739108
100 11 -0.0369595
101 11 0
1 12 0
2 12 -0.040577
3 12 -0.081151
4 12 -0.121728
5 12 -0.162309
6 12 -0.202901
7 12 -0.243506
8 12 -0.284124
9 12 -0.324757
10 12 -0.365403
11 12 -0.406059
12 12 -0.446718
13 12 -0.487373
14 12 -0.528016
15 12 -0.56863
16 12 -0.609197
17 12 -0.649703
18 12 -0.690122
19 12 -0.73043
20 12 -0.770591
21 12 -0.810572
22 12 -0.850335
23 12 -0.889837
24 12 -0.929028
25 12 -0.967856
26 12 -1.00626
27 12 -1.04417
28 12 -1.08153
29 12 -1.11827
30 12 -1.15431
31 12 -1.18956
32 12 -1.22394
33 12 -1.25736
34 12 -1.28973
35 12 -1.32096
36 12 -1.35095
37 12 -1.3796
38 12 -1.40682
39 12 -1.43249
40 12 -1.45654
41 12 -1.47886
42 12 -1.49937
43 12 -1.51797
44 12 -1.5346
45 12 -1.54917
46 12 -1.56162
47 12 -1.57189
48 12 -1.57994
49 12 -1.58572
50 12 -1.58921
51 12 -1.59039
52 12 -1.58925
53 12 -1.5858
54 12 -1.58005
55 12 -1.57204
56 12 -1.56181
57 12 -1.54939
58 12 -1.53486
59 12 -1.51826
60 12 -1.49969
61 12 -1.47921
62 12 -1.45692
63 12 -1.4329
64 12 -1.40725
65 12 -1.38007
66 12 -1.35144
67 12 -1.32148
68 12 -1.29027
69 12 -1.25791
70 12 -1.22451
71 12 -1.19014
72 12 -1.15491
73 12 -1.11888
74 12 -1.08215
75 12 -1.0448
76 12 -1.00688
77 12 -0.968482
78 12 -0.929657
79 12 -0.890467
80 12 -0.850964
81 12 -0.811191
82 12 -0.771203
83 12 -0.731032
84 12 -0.690715
85 12 -0.650278
86 12 -0.609753
87 12 -0.569166
88 12 -0.528533
89 12 -0.487868
90 12 -0.447189
91 12 -0.406504
92 12 -0.365819
93 12 -0.325141
94 12 -0.284472
95 12 -0.243817
96 12 -0.203169
97 12 -0.162533
98 12 -0.121903
99 12 -0.0812733
100 12 -0.0406405
101 12 0
1 13 0
2 13 -0.0442491
3 13 -0.0884951
4 13 -0.132746
5 13 -0.177007
6 13 -0.221283
7 13 -0.265579
8 13 -0.309896
9 13 -0.354237
10 13 -0.398598
11 13 -0.442978
12 13 -0.487373
13 13 -0.531776
14 13 -0.576175
15 13 -0.620552
16 13 -0.664897
17 13 -0.709189
18 13 -0.753401
19 13 -0.797505
20 13 -0.841466
21 13 -0.885251
22 13 -0.928816
23 13 -0.972114
24 13 -1.01509
25 13 -1.05769
26 13 -1.09984
27 13 -1.14148
28 13 -1.18254
29 13 -1.22293
30 13 -1.26257
31 13 -1.30136
32 13 -1.33923
33 13 -1.37606
34 13 -1.41175
35 13 -1.44621
36 13 -1.47931
37 13 -1.51095
38 13 -1.54103
39 13 -1.56941
40 13 -1.59601
41 13 -1.62072
42 13 -1.64342
43 13 -1.66402
44 13 -1.68245
45 13 -1.6986
46 13 -1.7124
47 13 -1.7238
48 13 -1.73272
49 13 -1.73914
50 13 -1.74301
51 13 -1.74431
52 13 -1.74304
53 13 -1.73922
54 13 -1.73284
55 13 -1.72396
56 13 -1.71261
57 13 -1.69884
58 13 -1.68273
59 13 -1.66434
60 13 -1.64377
61 13 -1.62109
62 13 -1.59642
63 13 -1.56986
64 13 -1.54149
65 13 -1.51145
66 13 -1.47984
67 13 -1.44676
68 13 -1.41234
69 13 -1.37666
70 13 -1.33985
71 13 -1.302
72 13 -1.26322
73 13 -1.22359
74 13 -1.1832
75 13 -1.14215
76 13 -1.10052
77 13 -1.05836
78 13 -1.01577
79 13 -0.972791
80 13 -0.929489
81 13 -0.885916
82 13 -0.842125
83 13 -0.798152
84 13 -0.754031
85 13 -0.7098
86 13 -0.665493
87 13 -0.621128
88 13 -0.576726
89 13 -0.532304
90 13 -0.487877
91 13 -0.443454
92 13 -0.399041
93 13 -0.354644
94 13 -0.310268
95 13 -0.26591
96 13 -0.221569
97 13 -0.177246
98 13 -0.132933
99 13 -0.0886239
100 13 -0.0443127
101 13 0
1 14 0
2 14 -0.0479135
3 14 -0.0958256
4 14 -0.143746
5 14 -0.191682
6 14 -0.23964
7 14 -0.287624
8 14 -0.335638
9 14 -0.383686
10 14 -0.431766
11 14 -0.479877
12 14 -0.528014
13 14 -0.576172
14 14 -0.624339
15 14 -0.672501
16 14 -0.720644
17 14 -0.768744
18 14 -0.816777
19 14 -0.864713
20 14 -0.912514
21 14 -0.960145
22 14 -1.00756
23 14 -1.0547
24 14 -1.10152
25 14 -1.14795
26 14 -1.19393
27 14 -1.23937
28 14 -1.2842
29 14 -1.32833
30 14 -1.37166
31 14 -1.4141
32 14 -1.45555
33 14 -1.49589
34 14 -1.53501
35 14 -1.5728
36 14 -1.60913
37 14 -1.64387
38 14 -1.67691
39 14 -1.70811
40 14 -1.73737
41 14 -1.76456
42 14 -1.78956
43 14 -1.81226
44 14 -1.83256
45 14 -1.85037
46 14 -1.8656
47 14 -1.87816
48 14 -1.88801
49 14 -1.89509
50 14 -1.89936
51 14 -1.9008
52 14 -1.8994
53 14 -1.89517
54 14 -1.88814
55 14 -1.87834
56 14 -1.86581
57 14 -1.85063
58 14 -1.83286
59 14 -1.8126
60 14 -1.78994
61 14 -1.76497
62 14 -1.73782
63 14 -1.70859
64 14 -1.67741
65 14 -1.64441
66 14 -1.60969
67 14 -1.5734
68 14 -1.53564
69 14 -1.49654
70 14 -1.45622
71 14 -1.41479
72 14 -1.37236
73 14 -1.32904
74 14 -1.28491
75 14 -1.24009
76 14 -1.19465
77 14 -1.14868
78 14 -1.10225
79 14 -1.05543
80 14 -1.00828
81 14 -0.960859
82 14 -0.91322
83 14 -0.865401
84 14 -0.817446
85 14 -0.769397
86 14 -0.721278
87 14 -0.673114
88 14 -0.624926
89 14 -0.576733
90 14 -0.528547
91 14 -0.480377
92 14 -0.432231
93 14 -0.384115
94 14 -0.33603
95 14 -0.287973
96 14 -0.23994
97 14 -0.191933
98 14 -0.143944
99 14 -0.0959587
100 14 -0.0479807
101 14 0
1 15 0
2 15 -0.0515698
3 15 -0.103142
4 15 -0.154725
5 15 -0.206328
6 15 -0.257962
7 15 -0.309631
8 15 -0.361341
9 15 -0.413094
10 15 -0.464895
11 15 -0.516741
12 15 -0.568628
13 15 -0.620553
14 15 -0.672501
15 15 -0.724465
16 15 -0.776425
17 15 -0.82836
18 15 -0.880244
19 15 -0.932045
20 15 -0.983725
21 15 -1.03525
22 15 -1.08656
23 15 -1.13761
24 15 -1.18834
25 15 -1.23867
26 15 -1.28854
27 15 -1.33786
28 15 -1.38655
29 15 -1.43451
30 15 -1.48164
31 15 -1.52783
32 15 -1.57297
33 15 -1.61693
34 15 -1.6596
35 15 -1.70084
36 15 -1.74051
37 15 -1.77848
38 15 -1.8146
39 15 -1.84876
40 15 -1.88079
41 15 -1.91058
42 15 -1.93798
43 15 -1.96288
44 15 -1.98517
45 15 -2.00472
46 15 -2.02144
47 15 -2.03524
48 15 -2.04606
49 15 -2.05384
50 15 -2.05853
51 15 -2.06011
52 15 -2.05857
53 15 -2.05393
54 15 -2.0462
55 15 -2.03543
56 15 -2.02167
57 15 -2.005
58 15 -1.98549
59 15 -1.96325
60 15 -1.93839
61 15 -1.91102
62 15 -1.88127
63 15 -1.84928
64 15 -1.81516
65 15 -1.77906
66 15 -1.74112
67 15 -1.70148
68 15 -1.66027
69 15 -1.61763
70 15 -1.57369
71 15 -1.52857
72 15 -1.48239
73 15 -1.43527
74 15 -1.38732
75 15 -1.33864
76 15 -1.28931
77 15 -1.23944
78 15 -1.18911
79 15 -1.13838
80 15 -1.08732
81 15 -1.036
82 15 -0.984468
83 15 -0.93277
84 15 -0.880951
85 15 -0.829052
86 15 -0.777097
87 15 -0.725112
88 15 -0.673122
89 15 -0.621144
90 15 -0.569189
91 15 -0.517265
92 15 -0.465383
93 15 -0.413546
94 15 -0.361752
95 15 -0.309995
96 15 -0.258277
97 15 -0.206592
98 15 -0.154928
99 15 -0.10328
100 15 -0.0516432
101 15 0
1 16 0
2 16 -0.0552181
3 16 -0.11044
4 16 -0.165676
5 16 -0.22094
6 16 -0.276243
7 16 -0.33159
8 16 -0.386991
9 16 -0.442449
10 16 -0.497971
11 16 -0.553555
12 16 -0.609197
13 16 -0.664898
14 16 -0.720644
15 16 -0.776426
16 16 -0.832224
17 16 -0.88802
18 16 -0.943786
19 16 -0.999488
20 16 -1.05509
21 16 -1.11055
22 16 -1.16582
23 16 -1.22083
24 16 -1.27553
25 16 -1.32984
26 16 -1.38369
27 16 -1.43698
28 16 -1.48962
29 16 -1.54151
30 16 -1.59255
31 16 -1.6426
32 16 -1.69155
33 16 -1.73927
34 16 -1.78561
35 16 -1.83043
36 16 -1.87358
37 16 -1.91492
38 16 -1.95428
39 16 -1.99151
40 16 -2.02645
41 16 -2.05897
42 16 -2.08891
43 16 -2.11613
44 16 -2.1405
45 16 -2.16189
46 16 -2.18018
47 16 -2.1953
48 16 -2.20715
49 16 -2.21567
50 16 -2.22081
51 16 -2.22254
52 16 -2.22085
53 16 -2.21577
54 16 -2.2073
55 16 -2.1955
56 16 -2.18043
57 16 -2.16218
58 16 -2.14084
59 16 -2.11652
60 16 -2.08935
61 16 -2.05945
62 16 -2.02698
63 16 -1.99207
64 16 -1.95487
65 16 -1.91554
66 16 -1.87424
67 16 -1.83112
68 16 -1.78633
69 16 -1.74001
70 16 -1.69232
71 16 -1.64339
72 16 -1.59335
73 16 -1.54232
74 16 -1.49044
75 16 -1.4378
76 16 -1.38451
77 16 -1.33066
78 16 -1.27635
79 16 -1.22164
80 16 -1.16662
81 16 -1.11135
82 16 -1.05587
83 16 -1.00025
84 16 -0.944531
85 16 -0.888747
86 16 -0.83293
87 16 -0.777104
88 16 -0.721295
89 16 -0.665519
90 16 -0.609784
91 16 -0.554105
92 16 -0.498482
93 16 -0.442922
94 16 -0.387418
95 16 -0.331968
96 16 -0.276571
97 16 -0.221212
98 16 -0.165887
99 16 -0.110585
100 16 -0.0552953
101 16 0
1 17 0
2 17 -0.0588541
3 17 -0.117714
4 17 -0.176592
5 17 -0.235507
6 17 -0.294468
7 17 -0.353487
8 17 -0.412574
9 17 -0.471735
10 17 -0.530976
11 17 -0.590299
12 17 -0.649705
13 17 -0.709192
14 17 -0.768747
15 17 -0.828362
16 17 -0.888021
17 17 -0.947704
18 17 -1.00738
19 17 -1.06702
20 17 -1.12659
21 17 -1.18604
22 17 -1.24532
23 17 -1.30436
24 17 -1.3631
25 17 -1.42147
26 17 -1.47938
27 17 -1.53673
28 17 -1.59343
29 17 -1.64937
30 17 -1.70443
31 17 -1.75847
32 17 -1.81136
33 17 -1.86297
34 17 -1.91313
35 17 -1.96168
36 17 -2.00847
37 17 -2.05332
38 17 -2.09607
39 17 -2.13653
40 17 -2.17455
41 17 -2.20994
42 17 -2.24256
43 17 -2.27222
44 17 -2.2988
45 17 -2.32213
46 17 -2.3421
47 17 -2.35861
48 17 -2.37156
49 17 -2.38087
50 17 -2.38648
51 17 -2.38837
52 17 -2.38653
53 17 -2.38097
54 17 -2.37171
55 17 -2.35883
56 17 -2.34237
57 17 -2.32244
58 17 -2.29916
59 17 -2.27263
60 17 -2.24302
61 17 -2.21045
62 17 -2.17511
63 17 -2.13713
64 17 -2.0967
65 17 -2.05399
66 17 -2.00917
67 17 -1.96242
68 17 -1.91389
69 17 -1.86376
70 17 -1.81218
71 17 -1.7593
72 17 -1.70527
73 17 -1.65023
74 17 -1.5943
75 17 -1.5376
76 17 -1.48025
77 17 -1.42234
78 17 -1.36397
79 17 -1.30522
80 17 -1.24617
81 17 -1.18688
82 17 -1.12741
83 17 -1.06783
84 17 -1.00816
85 17 -0.948464
86 17 -0.888757
87 17 -0.82907
88 17 -0.769425
89 17 -0.709838
90 17 -0.650315
91 17 -0.590872
92 17 -0.531508
93 17 -0.472225
94 17 -0.413017
95 17 -0.35388
96 17 -0.294808
97 17 -0.235787
98 17 -0.176812
99 17 -0.117865
100 17 -0.0589335
101 17 0
1 18 0
2 18 -0.0624748
3 18 -0.124958
4 18 -0.187466
5 18 -0.250018
6 18 -0.312627
7 18 -0.375309
8 18 -0.438074
9 18 -0.500933
10 18 -0.563892
11 18 -0.626957
12 18 -0.690128
13 18 -0.753404
14 18 -0.81678
15 18 -0.880246
16 18 -0.943786
17 18 -1.00738
18 18 -1.07101
19 18 -1.13463
20 18 -1.1982
21 18 -1.26169
22 18 -1.32504
23 18 -1.38818
24 18 -1.45104
25 18 -1.51355
26 18 -1.57562
27 18 -1.63714
28 18 -1.69801
29 18 -1.75811
30 18 -1.81731
31 18 -1.87548
32 18 -1.93246
33 18 -1.98811
34 18 -2.04224
35 18 -2.0947
36 18 -2.14529
37 18 -2.19383
38 18 -2.24013
39 18 -2.284
40 18 -2.32525
41 18 -2.3637
42 18 -2.39914
43 18 -2.4314
44 18 -2.46032
45 18 -2.48573
46 18 -2.50749
47 18 -2.52548
48 18 -2.53959
49 18 -2.54974
50 18 -2.55587
51 18 -2.55794
52 18 -2.55593
53 18 -2.54986
54 18 -2.53977
55 18 -2.52571
56 18 -2.50777
57 18 -2.48606
58 18 -2.4607
59 18 -2.43184
60 18 -2.39962
61 18 -2.36424
62 18 -2.32585
63 18 -2.28464
64 18 -2.2408
65 18 -2.19454
66 18 -2.14603
67 18 -2.09548
68 18 -2.04305
69 18 -1.98894
70 18 -1.93332
71 18 -1.87636
72 18 -1.81821
73 18 -1.75902
74 18 -1.69892
75 18 -1.63806
76 18 -1.57654
77 18 -1.51447
78 18 -1.45195
79 18 -1.38908
80 18 -1.32593
81 18 -1.26257
82 18 -1.19907
83 18 -1.13547
84 18 -1.07182
85 18 -1.00817
86 18 -0.944553
87 18 -0.880983
88 18 -0.817483
89 18 -0.754072
90 18 -0.690755
91 18 -0.627546
92 18 -0.564439
93 18 -0.501436
94 18 -0.43853
95 18 -0.375714
96 18 -0.312978
97 18 -0.250309
98 18 -0.187693
99 18 -0.125115
100 18 -0.0625566
101 18 0
1 19 0
2 19 -0.0660789
3 19 -0.132168
4 19 -0.19829
5 19 -0.264466
6 19 -0.33071
7 19 -0.397041
8 19 -0.463475
9 19 -0.530022
10 19 -0.596694
11 19 -0.663496
12 19 -0.730432
13 19 -0.797506
14 19 -0.864714
15 19 -0.932045
16 19 -0.999489
17 19 -1.06703
18 19 -1.13463
19 19 -1.20226
20 19 -1.2699
21 19 -1.33748
22 19 -1.40496
23 19 -1.47227
24 19 -1.53933
25 19 -1.60607
26 19 -1.67239
27 19 -1.73818
28 19 -1.80334
29 19 -1.86774
30 19 -1.93122
31 19 -1.99367
32 19 -2.0549
33 19 -2.11475
34 19 -2.17303
35 19 -2.22956
36 19 -2.28414
37 19 -2.33656
38 19 -2.38661
39 19 -2.43409
40 19 -2.47877
41 19 -2.52043
42 19 -2.55889
43 19 -2.59391
44 19 -2.62533
45 19 -2.65296
46 19 -2.67663
47 19 -2.69622
48 19 -2.71159
49 19 -2.72264
50 19 -2.72932
51 19 -2.73157
52 19 -2.72938
53 19 -2.72277
54 19 -2.71177
55 19 -2.69646
56 19 -2.67693
57 19 -2.65331
58 19 -2.62574
59 19 -2.59438
60 19 -2.55941
61 19 -2.52101
62 19 -2.47939
63 19 -2.43476
64 19 -2.38733
65 19 -2.33731
66 19 -2.28493
67 19 -2.23038
68 19 -2.17389
69 19 -2.11563
70 19 -2.05581
71 19 -1.9946
72 19 -1.93218
73 19 -1.86869
74 19 -1.80431
75 19 -1.73915
76 19 -1.67336
77 19 -1.60703
78 19 -1.54029
79 19 -1.47321
80 19 -1.40589
81 19 -1.3384
82 19 -1.27079
83 19 -1.20314
84 19 -1.13548
85 19 -1.06785
86 19 -1.00029
87 19 -0.932812
88 19 -0.865446
89 19 -0.7982
90 19 -0.731083
91 19 -0.664104
92 19 -0.597258
93 19 -0.530541
94 19 -0.463943
95 19 -0.397457
96 19 -0.331069
97 19 -0.264764
98 19 -0.198523
99 19 -0.132328
100 19 -0.0661597
101 19 0
1 20 0
2 20 -0.0696642
3 20 -0.13934
4 20 -0.209058
5 20 -0.278836
6 20 -0.348699
7 20 -0.418665
8 20 -0.488752
9 20 -0.558977
10 20 -0.629355
11 20 -0.69989
12 20 -0.770593
13 20 -0.841469
14 20 -0.912516
15 20 -0.983727
16 20 -1.05509
17 20 -1.12659
18 20 -1.19821
19 20 -1.2699
20 20 -1.34164
21 20 -1.41337
22 20 -1.48504
23 20 -1.55659
24 20 -1.62794
25 20 -1.699
26 20 -1.76968
27 20 -1.83986
28 20 -1.90943
29 20 -1.97826
30 20 -2.04618
31 20 -2.11306
32 20 -2.1787
33 20 -2.24294
34 20 -2.30556
35 20 -2.36637
36 20 -2.42514
37 20 -2.48165
38 20 -2.53567
39 20 -2.58696
40 20 -2.63527
41 20 -2.68038
42 20 -2.72205
43 20 -2.76003
44 20 -2.79413
45 20 -2.82414
46 20 -2.84987
47 20 -2.87116
48 20 -2.88788
49 20 -2.89992
50 20 -2.90718
51 20 -2.90963
52 20 -2.90725
53 20 -2.90004
54 20 -2.88807
55 20 -2.87142
56 20 -2.85019
57 20 -2.82452
58 20 -2.79457
59 20 -2.76053
60 20 -2.72259
61 20 -2.68098
62 20 -2.63593
63 20 -2.58766
64 20 -2.53642
65 20 -2.48245
66 20 -2.42597
67 20 -2.36724
68 20 -2.30647
69 20 -2.24388
70 20 -2.17966
71 20 -2.11404
72 20 -2.04718
73 20 -1.97926
74 20 -1.91045
75 20 -1.84088
76 20 -1.77069
77 20 -1.70001
78 20 -1.62894
79 20 -1.55758
80 20 -1.48601
81 20 -1.41432
82 20 -1.34257
83 20 -1.27081
84 20 -1.19909
85 20 -1.12745
86 20 -1.05592
87 20 -0.984518
88 20 -0.91327
89 20 -0.842182
90 20 -0.771263
91 20 -0.700518
92 20 -0.629936
93 20 -0.559511
94 20 -0.489233
95 20 -0.419091
96 20 -0.34907
97 20 -0.279144
98 20 -0.209295
99 20 -0.139503
100 20 -0.0697472
101 20 0
1 21 0
2 21 -0.073226
3 21 -0.146467
4 21 -0.219755
5 21 -0.293116
6 21 -0.366576
7 21 -0.440159
8 21 -0.513885
9 21 -0.587776
10 21 -0.661846
11 21 -0.736108
12 21 -0.810576
13 21 -0.885255
14 21 -0.960145
15 21 -1.03525
16 21 -1.11055
17 21 -1.18604
18 21 -1.2617
19 21 -1.33748
20 21 -1.41337
21 21 -1.48931
22 21 -1.56524
23 21 -1.64111
24 21 -1.71683
25 21 -1.7923
26 21 -1.86745
27 21 -1.94214
28 21 -2.01626
29 21 -2.08966
30 21 -2.16219
31 21 -2.23367