title="Potential"
variables = "x","y","V"
zone i=101,j=101,f=point
1 1 0
2 1 0
3 1 0
4 1 0
5 1 0
6 1 0
7 1 0
8 1 0
9 1 0
10 1 0
11 1 0
12 1 0
13 1 0
14 1 0
15 1 0
16 1 0
17 1 0
18 1 0
19 1 0
20 1 0
21 1 0
22 1 0
23 1 0
24 1 0
25 1 0
26 1 0
27 1 0
28 1 0
29 1 0
30 1 0
31 1 0
32 1 0
33 1 0
34 1 0
35 1 0
36 1 0
37 1 0
38 1 0
39 1 0
40 1 0
41 1 0
42 1 0
43 1 0
44 1 0
45 1 0
46 1 0
47 1 0
48 1 0
49 1 0
50 1 0
51 1 0
52 1 0
53 1 0
54 1 0
55 1 0
56 1 0
57 1 0
58 1 0
59 1 0
60 1 0
61 1 0
62 1 0
63 1 0
64 1 0
65 1 0
66 1 0
67 1 0
68 1 0
69 1 0
70 1 0
71 1 0
72 1 0
73 1 0
74 1 0
75 1 0
76 1 0
77 1 0
78 1 0
79 1 0
80 1 0
81 1 0
82 1 0
83 1 0
84 1 0
85 1 0
86 1 0
87 1 0
88 1 0
89 1 0
90 1 0
91 1 0
92 1 0
93 1 0
94 1 0
95 1 0
96 1 0
97 1 0
98 1 0
99 1 0
100 1 0
101 1 0
1 2 0
2 2 -0.00343121
3 2 -0.00686404
4 2 -0.0102931
5 2 -0.0137255
6 2 -0.0171565
7 2 -0.0205883
8 2 -0.0240178
9 2 -0.0274469
10 2 -0.0308704
11 2 -0.0342971
12 2 -0.0377191
13 2 -0.0411342
14 2 -0.0445456
15 2 -0.0479545
16 2 -0.0513582
17 2 -0.0547492
18 2 -0.0581221
19 2 -0.0614809
20 2 -0.064829
21 2 -0.0681553
22 2 -0.0714545
23 2 -0.074722
24 2 -0.0779674
25 2 -0.0811856
26 2 -0.084347
27 2 -0.0874708
28 2 -0.0905478
29 2 -0.0935666
30 2 -0.0965246
31 2 -0.0994143
32 2 -0.102222
33 2 -0.104961
34 2 -0.107614
35 2 -0.110163
36 2 -0.112601
37 2 -0.114922
38 2 -0.117128
39 2 -0.119209
40 2 -0.121157
41 2 -0.122968
42 2 -0.124632
43 2 -0.126142
44 2 -0.127483
45 2 -0.128648
46 2 -0.129653
47 2 -0.13048
48 2 -0.131127
49 2 -0.131597
50 2 -0.131896
51 2 -0.131989
52 2 -0.131886
53 2 -0.131581
54 2 -0.131089
55 2 -0.130445
56 2 -0.129615
57 2 -0.128603
58 2 -0.127422
59 2 -0.126089
60 2 -0.124588
61 2 -0.122926
62 2 -0.121112
63 2 -0.119155
64 2 -0.117063
65 2 -0.11486
66 2 -0.11254
67 2 -0.110103
68 2 -0.107561
69 2 -0.104921
70 2 -0.1022
71 2 -0.0993901
72 2 -0.0965032
73 2 -0.0935482
74 2 -0.0905258
75 2 -0.0874515
76 2 -0.0843236
77 2 -0.0811554
78 2 -0.0779465
79 2 -0.074699
80 2 -0.0714289
81 2 -0.068131
82 2 -0.0648046
83 2 -0.0614584
84 2 -0.0580979
85 2 -0.0547189
86 2 -0.0513256
87 2 -0.047925
88 2 -0.0445162
89 2 -0.041101
90 2 -0.0376829
91 2 -0.0342643
92 2 -0.030844
93 2 -0.0274229
94 2 -0.0239982
95 2 -0.020574
96 2 -0.0171472
97 2 -0.013718
98 2 -0.0102893
99 2 -0.00685983
100 2 -0.00343053
101 2 0
1 3 0
2 3 -0.00686234
3 3 -0.0137227
4 3 -0.0205864
5 3 -0.0274477
6 3 -0.0343145
7 3 -0.0411761
8 3 -0.0480366
9 3 -0.0548917
10 3 -0.0617459
11 3 -0.0685983
12 3 -0.0754422
13 3 -0.0822723
14 3 -0.0890969
15 3 -0.0959211
16 3 -0.102727
17 3 -0.109507
18 3 -0.116256
19 3 -0.122985
20 3 -0.129683
21 3 -0.136339
22 3 -0.142937
23 3 -0.149475
24 3 -0.155977
25 3 -0.162408
26 3 -0.168767
27 3 -0.17503
28 3 -0.181185
29 3 -0.18722
30 3 -0.19314
31 3 -0.198911
32 3 -0.204524
33 3 -0.21002
34 3 -0.215334
35 3 -0.220435
36 3 -0.225318
37 3 -0.22997
38 3 -0.234376
39 3 -0.238562
40 3 -0.242467
41 3 -0.246094
42 3 -0.249421
43 3 -0.252443
44 3 -0.255136
45 3 -0.257481
46 3 -0.259489
47 3 -0.261157
48 3 -0.262464
49 3 -0.263411
50 3 -0.263987
51 3 -0.264178
52 3 -0.263984
53 3 -0.263402
54 3 -0.262439
55 3 -0.261113
56 3 -0.259421
57 3 -0.257394
58 3 -0.255037
59 3 -0.252352
60 3 -0.249342
61 3 -0.24601
62 3 -0.242371
63 3 -0.238451
64 3 -0.23426
65 3 -0.229837
66 3 -0.225193
67 3 -0.220313
68 3 -0.215233
69 3 -0.209943
70 3 -0.204496
71 3 -0.198867
72 3 -0.193081
73 3 -0.187166
74 3 -0.181115
75 3 -0.174956
76 3 -0.168699
77 3 -0.162364
78 3 -0.155939
79 3 -0.149452
80 3 -0.142909
81 3 -0.136297
82 3 -0.129638
83 3 -0.122936
84 3 -0.116218
85 3 -0.10946
86 3 -0.10267
87 3 -0.0958688
88 3 -0.0890515
89 3 -0.0822168
90 3 -0.0753752
91 3 -0.0685339
92 3 -0.0616966
93 3 -0.0548485
94 3 -0.0479993
95 3 -0.0411481
96 3 -0.0342913
97 3 -0.0274329
98 3 -0.0205766
99 3 -0.013718
100 3 -0.00685939
101 3 0
1 4 0
2 4 -0.0102919
3 4 -0.0205872
4 4 -0.0308782
5 4 -0.0411775
6 4 -0.0514728
7 4 -0.0617661
8 4 -0.072054
9 4 -0.0823447
10 4 -0.092628
11 4 -0.102908
12 4 -0.113177
13 4 -0.123431
14 4 -0.133674
15 4 -0.143905
16 4 -0.154111
17 4 -0.164286
18 4 -0.174429
19 4 -0.184521
20 4 -0.194575
21 4 -0.204584
22 4 -0.214504
23 4 -0.224324
24 4 -0.234083
25 4 -0.243748
26 4 -0.253306
27 4 -0.262722
28 4 -0.271971
29 4 -0.281041
30 4 -0.289923
31 4 -0.298593
32 4 -0.307032
33 4 -0.315277
34 4 -0.323261
35 4 -0.330927
36 4 -0.338264
37 4 -0.345272
38 4 -0.351921
39 4 -0.358216
40 4 -0.364096
41 4 -0.369546
42 4 -0.37454
43 4 -0.379076
44 4 -0.383144
45 4 -0.386688
46 4 -0.389712
47 4 -0.392214
48 4 -0.394189
49 4 -0.39562
50 4 -0.39648
51 4 -0.396776
52 4 -0.396485
53 4 -0.395618
54 4 -0.394176
55 4 -0.39219
56 4 -0.389644
57 4 -0.386589
58 4 -0.383041
59 4 -0.37897
60 4 -0.37443
61 4 -0.369407
62 4 -0.363924
63 4 -0.358026
64 4 -0.351733
65 4 -0.345063
66 4 -0.338084
67 4 -0.330764
68 4 -0.323135
69 4 -0.31519
70 4 -0.306982
71 4 -0.298502
72 4 -0.289803
73 4 -0.280924
74 4 -0.271846
75 4 -0.262583
76 4 -0.253196
77 4 -0.24368
78 4 -0.234048
79 4 -0.224297
80 4 -0.214463
81 4 -0.204529
82 4 -0.194532
83 4 -0.184479
84 4 -0.174383
85 4 -0.164235
86 4 -0.154043
87 4 -0.143827
88 4 -0.133599
89 4 -0.123339
90 4 -0.113074
91 4 -0.102822
92 4 -0.0925558
93 4 -0.0822783
94 4 -0.0720087
95 4 -0.0617274
96 4 -0.0514403
97 4 -0.0411518
98 4 -0.0308667
99 4 -0.0205768
100 4 -0.0102907
101 4 0
1 5 0
2 5 -0.0137235
3 5 -0.0274468
4 5 -0.0411782
5 5 -0.0549049
6 5 -0.0686329
7 5 -0.0823543
8 5 -0.0960797
9 5 -0.1098
10 5 -0.123518
11 5 -0.137227
12 5 -0.150924
13 5 -0.164605
14 5 -0.17827
15 5 -0.191907
16 5 -0.205525
17 5 -0.219113
18 5 -0.232655
19 5 -0.246141
20 5 -0.25957
21 5 -0.27293
22 5 -0.286177
23 5 -0.299318
24 5 -0.312375
25 5 -0.325284
26 5 -0.338033
27 5 -0.350602
28 5 -0.36296
29 5 -0.37509
30 5 -0.386962
31 5 -0.398537
32 5 -0.409838
33 5 -0.420829
34 5 -0.431506
35 5 -0.441755
36 5 -0.451589
37 5 -0.46098
38 5 -0.469891
39 5 -0.478307
40 5 -0.486194
41 5 -0.493502
42 5 -0.500195
43 5 -0.506253
44 5 -0.511691
45 5 -0.516462
46 5 -0.520522
47 5 -0.523877
48 5 -0.526516
49 5 -0.528436
50 5 -0.529589
51 5 -0.529975
52 5 -0.52957
53 5 -0.528418
54 5 -0.526499
55 5 -0.523841
56 5 -0.520461
57 5 -0.516359
58 5 -0.511573
59 5 -0.506094
60 5 -0.500011
61 5 -0.493279
62 5 -0.485942
63 5 -0.478056
64 5 -0.469625
65 5 -0.46073
66 5 -0.451376
67 5 -0.441578
68 5 -0.431355
69 5 -0.420737
70 5 -0.409755
71 5 -0.398417
72 5 -0.386789
73 5 -0.374909
74 5 -0.362794
75 5 -0.35041
76 5 -0.33787
77 5 -0.325146
78 5 -0.312286
79 5 -0.29927
80 5 -0.286122
81 5 -0.272855
82 5 -0.259507
83 5 -0.246082
84 5 -0.232593
85 5 -0.219053
86 5 -0.205462
87 5 -0.191839
88 5 -0.178182
89 5 -0.16449
90 5 -0.15082
91 5 -0.13714
92 5 -0.123442
93 5 -0.109736
94 5 -0.0960268
95 5 -0.0823103
96 5 -0.0685906
97 5 -0.0548707
98 5 -0.0411565
99 5 -0.0274402
100 5 -0.0137212
101 5 0
1 6 0
2 6 -0.0171537
3 6 -0.034315
4 6 -0.0514727
5 6 -0.0686331
6 6 -0.0857891
7 6 -0.10295
8 6 -0.120107
9 6 -0.137266
10 6 -0.154416
11 6 -0.171557
12 6 -0.18869
13 6 -0.205799
14 6 -0.222883
15 6 -0.239945
16 6 -0.257
17 6 -0.273988
18 6 -0.290952
19 6 -0.30785
20 6 -0.324668
21 6 -0.341386
22 6 -0.35798
23 6 -0.374462
24 6 -0.390823
25 6 -0.407002
26 6 -0.422976
27 6 -0.43871
28 6 -0.454186
29 6 -0.469403
30 6 -0.484304
31 6 -0.498851
32 6 -0.513029
33 6 -0.526805
34 6 -0.540173
35 6 -0.553052
36 6 -0.565424
37 6 -0.577219
38 6 -0.588423
39 6 -0.598996
40 6 -0.608913
41 6 -0.618092
42 6 -0.626518
43 6 -0.63414
44 6 -0.640994
45 6 -0.647022
46 6 -0.652146
47 6 -0.656362
48 6 -0.659682
49 6 -0.662084
50 6 -0.663525
51 6 -0.66399
52 6 -0.663485
53 6 -0.66202
54 6 -0.659571
55 6 -0.65624
56 6 -0.652032
57 6 -0.646894
58 6 -0.640867
59 6 -0.633978
60 6 -0.626306
61 6 -0.617816
62 6 -0.608593
63 6 -0.598699
64 6 -0.588122
65 6 -0.576927
66 6 -0.565151
67 6 -0.552853
68 6 -0.540026
69 6 -0.526695
70 6 -0.512907
71 6 -0.498704
72 6 -0.484134
73 6 -0.469224
74 6 -0.454027
75 6 -0.438515
76 6 -0.422783
77 6 -0.406819
78 6 -0.390689
79 6 -0.374388
80 6 -0.357917
81 6 -0.341302
82 6 -0.324579
83 6 -0.307756
84 6 -0.290872
85 6 -0.273925
86 6 -0.256915
87 6 -0.239882
88 6 -0.222806
89 6 -0.2057
90 6 -0.188594
91 6 -0.17147
92 6 -0.154337
93 6 -0.137195
94 6 -0.120047
95 6 -0.102896
96 6 -0.0857397
97 6 -0.0685855
98 6 -0.0514439
99 6 -0.0342953
100 6 -0.0171464
101 6 0
1 7 0
2 7 -0.0205883
3 7 -0.0411769
4 7 -0.0617665
5 7 -0.0823553
6 7 -0.10295
7 7 -0.123544
8 7 -0.14414
9 7 -0.164734
10 7 -0.185319
11 7 -0.2059
12 7 -0.226471
13 7 -0.247016
14 7 -0.267549
15 7 -0.288059
16 7 -0.308544
17 7 -0.328988
18 7 -0.349375
19 7 -0.369674
20 7 -0.389882
21 7 -0.409994
22 7 -0.429951
23 7 -0.449793
24 7 -0.469451
25 7 -0.488931
26 7 -0.50816
27 7 -0.527117
28 7 -0.545758
29 7 -0.564085
30 7 -0.582041
31 7 -0.599569
32 7 -0.616628
33 7 -0.63325
34 7 -0.649372
35 7 -0.664934
36 7 -0.679871
37 7 -0.694114
38 7 -0.70768
39 7 -0.720463
40 7 -0.732441
41 7 -0.743533
42 7 -0.753729
43 7 -0.762974
44 7 -0.771236
45 7 -0.778527
46 7 -0.784726
47 7 -0.789818
48 7 -0.793829
49 7 -0.796721
50 7 -0.798436
51 7 -0.79899
52 7 -0.798388
53 7 -0.796629
54 7 -0.793697
55 7 -0.789666
56 7 -0.784579
57 7 -0.778383
58 7 -0.771098
59 7 -0.762773
60 7 -0.753479
61 7 -0.743183
62 7 -0.732046
63 7 -0.720119
64 7 -0.707358
65 7 -0.693824
66 7 -0.679584
67 7 -0.664753
68 7 -0.649263
69 7 -0.633168
70 7 -0.61656
71 7 -0.59946
72 7 -0.581898
73 7 -0.56391
74 7 -0.545593
75 7 -0.526933
76 7 -0.507976
77 7 -0.488741
78 7 -0.469304
79 7 -0.449683
80 7 -0.429868
81 7 -0.409874
82 7 -0.389783
83 7 -0.369564
84 7 -0.349255
85 7 -0.328871
86 7 -0.30844
87 7 -0.287972
88 7 -0.267456
89 7 -0.246929
90 7 -0.226381
91 7 -0.205815
92 7 -0.185241
93 7 -0.164657
94 7 -0.144073
95 7 -0.123486
96 7 -0.102899
97 7 -0.0823137
98 7 -0.0617335
99 7 -0.0411532
100 7 -0.0205769
101 7 0
1 8 0
2 8 -0.0240178
3 8 -0.0480347
4 8 -0.072054
5 8 -0.0960795
6 8 -0.120108
7 8 -0.144139
8 8 -0.168173
9 8 -0.192206
10 8 -0.216233
11 8 -0.240251
12 8 -0.264277
13 8 -0.288274
14 8 -0.312252
15 8 -0.33621
16 8 -0.360165
17 8 -0.384062
18 8 -0.407881
19 8 -0.431609
20 8 -0.455241
21 8 -0.478757
22 8 -0.502087
23 8 -0.525312
24 8 -0.548339
25 8 -0.571154
26 8 -0.593668
27 8 -0.615878
28 8 -0.637723
29 8 -0.659184
30 8 -0.680219
31 8 -0.700767
32 8 -0.72078
33 8 -0.740302
34 8 -0.759246
35 8 -0.777526
36 8 -0.79509
37 8 -0.811872
38 8 -0.827816
39 8 -0.842809
40 8 -0.8569
41 8 -0.86997
42 8 -0.881991
43 8 -0.89289
44 8 -0.902597
45 8 -0.911183
46 8 -0.918473
47 8 -0.924473
48 8 -0.929198
49 8 -0.932581
50 8 -0.934583
51 8 -0.935212
52 8 -0.934498
53 8 -0.932454
54 8 -0.929042
55 8 -0.924319
56 8 -0.918309
57 8 -0.910991
58 8 -0.902414
59 8 -0.892633
60 8 -0.88171
61 8 -0.869633
62 8 -0.856548
63 8 -0.842503
64 8 -0.827506
65 8 -0.8116
66 8 -0.794833
67 8 -0.777368
68 8 -0.759163
69 8 -0.740277
70 8 -0.720788
71 8 -0.700729
72 8 -0.680132
73 8 -0.659042
74 8 -0.637552
75 8 -0.615695
76 8 -0.593472
77 8 -0.570952
78 8 -0.548202
79 8 -0.525225
80 8 -0.502034
81 8 -0.478656
82 8 -0.455132
83 8 -0.431468
84 8 -0.407717
85 8 -0.3839
86 8 -0.360028
87 8 -0.336112
88 8 -0.312157
89 8 -0.28818
90 8 -0.264185
91 8 -0.240172
92 8 -0.216151
93 8 -0.192125
94 8 -0.168098
95 8 -0.144075
96 8 -0.120055
97 8 -0.0960367
98 8 -0.072023
99 8 -0.0480147
100 8 -0.0240076
101 8 0
1 9 0
2 9 -0.0274424
3 9 -0.0548875
4 9 -0.0823406
5 9 -0.1098
6 9 -0.137263
7 9 -0.164734
8 9 -0.192204
9 9 -0.219692
10 9 -0.247169
11 9 -0.274646
12 9 -0.302127
13 9 -0.329581
14 9 -0.357023
15 9 -0.384454
16 9 -0.411863
17 9 -0.439223
18 9 -0.466496
19 9 -0.493669
20 9 -0.520748
21 9 -0.547713
22 9 -0.57449
23 9 -0.601112
24 9 -0.627532
25 9 -0.65369
26 9 -0.679547
27 9 -0.705034
28 9 -0.730104
29 9 -0.754769
30 9 -0.778926
31 9 -0.802574
32 9 -0.825625
33 9 -0.848073
34 9 -0.869882
35 9 -0.890954
36 9 -0.911205
37 9 -0.930588
38 9 -0.948953
39 9 -0.966257
40 9 -0.98248
41 9 -0.997571
42 9 -1.01147
43 9 -1.02405
44 9 -1.0353
45 9 -1.04518
46 9 -1.05359
47 9 -1.06051
48 9 -1.06596
49 9 -1.06984
50 9 -1.07215
51 9 -1.07287
52 9 -1.07203
53 9 -1.06969
54 9 -1.06579
55 9 -1.06035
56 9 -1.05337
57 9 -1.0449
58 9 -1.03502
59 9 -1.02375
60 9 -1.01114
61 9 -0.997234
62 9 -0.98216
63 9 -0.96596
64 9 -0.948665
65 9 -0.930351
66 9 -0.911045
67 9 -0.890884
68 9 -0.869914
69 9 -0.848173
70 9 -0.825716
71 9 -0.802581
72 9 -0.778893
73 9 -0.754674
74 9 -0.729973
75 9 -0.704857
76 9 -0.679348
77 9 -0.653507
78 9 -0.62739
79 9 -0.601019
80 9 -0.574406
81 9 -0.547596
82 9 -0.520618
83 9 -0.493504
84 9 -0.466312
85 9 -0.439044
86 9 -0.411705
87 9 -0.38433
88 9 -0.356914
89 9 -0.329471
90 9 -0.302009
91 9 -0.274532
92 9 -0.247069
93 9 -0.219597
94 9 -0.192121
95 9 -0.164662
96 9 -0.137207
97 9 -0.109754
98 9 -0.0823099
99 9 -0.0548711
100 9 -0.027434
101 9 0
1 10 0
2 10 -0.0308658
3 10 -0.0617416
4 10 -0.0926244
5 10 -0.123514
6 10 -0.154417
7 10 -0.185327
8 10 -0.21625
9 10 -0.247193
10 10 -0.278134
11 10 -0.309081
12 10 -0.340022
13 10 -0.370945
14 10 -0.401873
15 10 -0.432776
16 10 -0.463657
17 10 -0.494501
18 10 -0.525245
19 10 -0.555902
20 10 -0.586469
21 10 -0.616892
22 10 -0.64712
23 10 -0.677186
24 10 -0.707031
25 10 -0.736591
26 10 -0.765818
27 10 -0.794651
28 10 -0.82302
29 10 -0.850936
30 10 -0.87829
31 10 -0.905069
32 10 -0.931202
33 10 -0.956667
34 10 -0.981411
35 10 -1.00532
36 10 -1.02833
37 10 -1.05035
38 10 -1.07123
39 10 -1.09092
40 10 -1.10935
41 10 -1.12651
42 10 -1.14229
43 10 -1.15662
44 10 -1.16944
45 10 -1.18068
46 10 -1.19024
47 10 -1.19811
48 10 -1.20427
49 10 -1.20871
50 10 -1.21137
51 10 -1.21221
52 10 -1.21125
53 10 -1.20857
54 10 -1.20415
55 10 -1.19795
56 10 -1.19001
57 10 -1.18037
58 10 -1.16912
59 10 -1.15628
60 10 -1.14194
61 10 -1.12614
62 10 -1.109
63 10 -1.09058
64 10 -1.07094
65 10 -1.05012
66 10 -1.02821
67 10 -1.00532
68 10 -0.981517
69 10 -0.956843
70 10 -0.931377
71 10 -0.905146
72 10 -0.87829
73 10 -0.850857
74 10 -0.82291
75 10 -0.794495
76 10 -0.765648
77 10 -0.73645
78 10 -0.706911
79 10 -0.677085
80 10 -0.647003
81 10 -0.616728
82 10 -0.586283
83 10 -0.55569
84 10 -0.525027
85 10 -0.494266
86 10 -0.463447
87 10 -0.432602
88 10 -0.401716
89 10 -0.3708
90 10 -0.339854
91 10 -0.308917
92 10 -0.277995
93 10 -0.247071
94 10 -0.216154
95 10 -0.18525
96 10 -0.154354
97 10 -0.123469
98 10 -0.0925924
99 10 -0.0617238
100 10 -0.0308609
101 10 0
1 11 0
2 11 -0.0342918
3 11 -0.0685939
4 11 -0.102903
5 11 -0.137223
6 11 -0.171558
7 11 -0.205907
8 11 -0.240285
9 11 -0.27469
10 11 -0.309104
11 11 -0.343518
12 11 -0.377931
13 11 -0.412358
14 11 -0.44677
15 11 -0.481169
16 11 -0.515544
17 11 -0.549883
18 11 -0.584131
19 11 -0.618298
20 11 -0.652352
21 11 -0.686279
22 11 -0.720015
23 11 -0.753563
24 11 -0.786869
25 11 -0.819879
26 11 -0.852544
27 11 -0.884781
28 11 -0.916503
29 11 -0.947729
30 11 -0.978378
31 11 -1.00837
32 11 -1.03767
33 11 -1.06623
34 11 -1.09398
35 11 -1.12079
36 11 -1.14661
37 11 -1.17132
38 11 -1.19479
39 11 -1.21694
40 11 -1.23768
41 11 -1.25696
42 11 -1.27469
43 11 -1.29081
44 11 -1.30522
45 11 -1.31787
46 11 -1.32864
47 11 -1.33749
48 11 -1.34444
49 11 -1.34943
50 11 -1.35245
51 11 -1.35343
52 11 -1.35237
53 11 -1.34932
54 11 -1.34434
55 11 -1.33737
56 11 -1.32842
57 11 -1.31757
58 11 -1.30489
59 11 -1.29044
60 11 -1.27432
61 11 -1.25654
62 11 -1.23728
63 11 -1.2166
64 11 -1.1945
65 11 -1.17109
66 11 -1.14648
67 11 -1.12076
68 11 -1.09404
69 11 -1.06638
70 11 -1.03785
71 11 -1.00848
72 11 -0.978394
73 11 -0.947668
74 11 -0.91641
75 11 -0.884624
76 11 -0.852395
77 11 -0.819772
78 11 -0.786755
79 11 -0.75343
80 11 -0.719855
81 11 -0.686078
82 11 -0.652128
83 11 -0.618022
84 11 -0.583845
85 11 -0.549595
86 11 -0.515289
87 11 -0.480943
88 11 -0.446563
89 11 -0.412155
90 11 -0.377729
91 11 -0.343307
92 11 -0.308919
93 11 -0.274534
94 11 -0.240174
95 11 -0.205826
96 11 -0.171491
97 11 -0.137171
98 11 -0.102864
99 11 -0.0685699
100 11 -0.0342822
101 11 0
1 12 0
2 12 -0.0377154
3 12 -0.0754359
4 12 -0.113169
5 12 -0.150914
6 12 -0.188681
7 12 -0.226485
8 12 -0.264314
9 12 -0.302186
10 12 -0.340067
11 12 -0.377959
12 12 -0.415863
13 12 -0.453786
14 12 -0.491697
15 12 -0.529616
16 12 -0.567522
17 12 -0.605371
18 12 -0.643156
19 12 -0.68087
20 12 -0.718475
21 12 -0.755929
22 12 -0.793199
23 12 -0.830271
24 12 -0.867097
25 12 -0.903579
26 12 -0.939744
27 12 -0.97543
28 12 -1.0106
29 12 -1.04522
30 12 -1.07922
31 12 -1.11253
32 12 -1.14504
33 12 -1.17677
34 12 -1.20765
35 12 -1.23744
36 12 -1.26612
37 12 -1.2936
38 12 -1.31974
39 12 -1.34443
40 12 -1.36757
41 12 -1.38907
42 12 -1.40882
43 12 -1.4268
44 12 -1.44287
45 12 -1.45696
46 12 -1.46901
47 12 -1.47893
48 12 -1.48669
49 12 -1.49224
50 12 -1.49561
51 12 -1.49673
52 12 -1.49555
53 12 -1.49214
54 12 -1.48657
55 12 -1.47879
56 12 -1.46879
57 12 -1.45668
58 12 -1.44256
59 12 -1.42646
60 12 -1.40846
61 12 -1.38865
62 12 -1.36713
63 12 -1.34406
64 12 -1.31943
65 12 -1.29338
66 12 -1.26597
67 12 -1.23737
68 12 -1.20761
69 12 -1.17685
70 12 -1.14518
71 12 -1.11264
72 12 -1.07928
73 12 -1.04524
74 12 -1.01058
75 12 -0.97535
76 12 -0.93965
77 12 -0.903541
78 12 -0.867022
79 12 -0.830154
80 12 -0.793014
81 12 -0.755684
82 12 -0.718196
83 12 -0.68056
84 12 -0.642844
85 12 -0.605066
86 12 -0.567216
87 12 -0.52933
88 12 -0.491441
89 12 -0.453531
90 12 -0.415611
91 12 -0.377699
92 12 -0.339842
93 12 -0.302005
94 12 -0.26419
95 12 -0.226391
96 12 -0.188616
97 12 -0.150861
98 12 -0.113128
99 12 -0.0754092
100 12 -0.0377019
101 12 0
1 13 0
2 13 -0.0411263
3 13 -0.0822622
4 13 -0.123421
5 13 -0.164593
6 13 -0.205791
7 13 -0.247035
8 13 -0.288334
9 13 -0.329664
10 13 -0.371019
11 13 -0.412397
12 13 -0.453806
13 13 -0.495236
14 13 -0.536665
15 13 -0.578134
16 13 -0.619581
17 13 -0.66099
18 13 -0.702343
19 13 -0.743637
20 13 -0.784822
21 13 -0.825862
22 13 -0.866721
23 13 -0.907373
24 13 -0.947738
25 13 -0.98777
26 13 -1.02746
27 13 -1.06667
28 13 -1.10534
29 13 -1.14341
30 13 -1.18087
31 13 -1.21756
32 13 -1.25341
33 13 -1.28842
34 13 -1.32246
35 13 -1.35536
36 13 -1.38701
37 13 -1.41735
38 13 -1.44624
39 13 -1.47357
40 13 -1.49915
41 13 -1.52296
42 13 -1.54486
43 13 -1.56478
44 13 -1.58259
45 13 -1.59823
46 13 -1.61159
47 13 -1.6226
48 13 -1.6312
49 13 -1.63736
50 13 -1.64109
51 13 -1.64235
52 13 -1.64107
53 13 -1.63729
54 13 -1.63106
55 13 -1.62242
56 13 -1.61136
57 13 -1.59795
58 13 -1.5823
59 13 -1.56444
60 13 -1.5445
61 13 -1.52256
62 13 -1.49874
63 13 -1.47318
64 13 -1.44592
65 13 -1.41712
66 13 -1.38685
67 13 -1.35524
68 13 -1.32236
69 13 -1.2884
70 13 -1.2535
71 13 -1.21767
72 13 -1.18096
73 13 -1.14352
74 13 -1.1054
75 13 -1.06667
76 13 -1.02745
77 13 -0.987769
78 13 -0.947678
79 13 -0.907217
80 13 -0.866482
81 13 -0.825549
82 13 -0.784477
83 13 -0.743283
84 13 -0.701985
85 13 -0.660648
86 13 -0.619242
87 13 -0.577799
88 13 -0.536382
89 13 -0.494947
90 13 -0.453514
91 13 -0.412101
92 13 -0.370763
93 13 -0.329467
94 13 -0.288189
95 13 -0.246931
96 13 -0.205719
97 13 -0.164536
98 13 -0.123377
99 13 -0.0822389
100 13 -0.0411168
101 13 0
1 14 0
2 14 -0.0445281
3 14 -0.0890736
4 14 -0.133655
5 14 -0.178261
6 14 -0.222887
7 14 -0.267569
8 14 -0.312323
9 14 -0.357116
10 14 -0.401955
11 14 -0.446829
12 14 -0.491749
13 14 -0.53671
14 14 -0.581684
15 14 -0.626702
16 14 -0.671731
17 14 -0.716717
18 14 -0.761664
19 14 -0.806557
20 14 -0.851368
21 14 -0.896031
22 14 -0.940532
23 14 -0.984801
24 14 -1.02879
25 14 -1.07244
26 14 -1.11574
27 14 -1.15854
28 14 -1.20079
29 14 -1.24241
30 14 -1.28337
31 14 -1.32355
32 14 -1.36283
33 14 -1.4012
34 14 -1.43853
35 14 -1.47466
36 14 -1.50942
37 14 -1.54273
38 14 -1.57446
39 14 -1.6045
40 14 -1.63265
41 14 -1.65888
42 14 -1.683
43 14 -1.70498
44 14 -1.72461
45 14 -1.74185
46 14 -1.75659
47 14 -1.76873
48 14 -1.77824
49 14 -1.78508
50 14 -1.78921
51 14 -1.79059
52 14 -1.78918
53 14 -1.785
54 14 -1.77809
55 14 -1.76854
56 14 -1.75636
57 14 -1.74161
58 14 -1.72434
59 14 -1.70467
60 14 -1.68268
61 14 -1.65848
62 14 -1.63224
63 14 -1.60408
64 14 -1.57412
65 14 -1.54243
66 14 -1.50914
67 14 -1.47442
68 14 -1.43837
69 14 -1.40114
70 14 -1.36289
71 14 -1.32367
72 14 -1.28352
73 14 -1.24255
74 14 -1.20089
75 14 -1.15861
76 14 -1.11577
77 14 -1.07245
78 14 -1.02871
79 14 -0.984622
80 14 -0.940264
81 14 -0.895692
82 14 -0.851004
83 14 -0.806165
84 14 -0.761247
85 14 -0.716317
86 14 -0.671334
87 14 -0.626332
88 14 -0.581347
89 14 -0.536381
90 14 -0.49143
91 14 -0.446512
92 14 -0.40169
93 14 -0.356914
94 14 -0.312175
95 14 -0.267472
96 14 -0.222809
97 14 -0.178189
98 14 -0.133609
99 14 -0.0890547
100 14 -0.0445245
101 14 0
1 15 0
2 15 -0.0479391
3 15 -0.0958919
4 15 -0.143876
5 15 -0.191909
6 15 -0.239976
7 15 -0.288091
8 15 -0.336275
9 15 -0.384536
10 15 -0.432857
11 15 -0.481229
12 15 -0.529677
13 15 -0.578187
14 15 -0.626718
15 15 -0.67532
16 15 -0.723943
17 15 -0.772548
18 15 -0.821106
19 15 -0.869635
20 15 -0.91811
21 15 -0.966453
22 15 -1.01459
23 15 -1.06256
24 15 -1.11025
25 15 -1.15758
26 15 -1.20454
27 15 -1.25103
28 15 -1.29696
29 15 -1.34222
30 15 -1.38677
31 15 -1.4305
32 15 -1.47339
33 15 -1.51523
34 15 -1.55595
35 15 -1.59541
36 15 -1.63342
37 15 -1.66984
38 15 -1.70453
39 15 -1.73737
40 15 -1.76824
41 15 -1.79698
42 15 -1.82343
43 15 -1.84756
44 15 -1.86912
45 15 -1.88802
46 15 -1.90425
47 15 -1.91766
48 15 -1.92814
49 15 -1.93566
50 15 -1.94016
51 15 -1.94165
52 15 -1.9401
53 15 -1.93553
54 15 -1.92795
55 15 -1.91743
56 15 -1.90405
57 15 -1.88786
58 15 -1.8689
59 15 -1.84729
60 15 -1.82312
61 15 -1.79656
62 15 -1.76779
63 15 -1.73696
64 15 -1.70415
65 15 -1.66944
66 15 -1.63305
67 15 -1.59514
68 15 -1.55577
69 15 -1.51516
70 15 -1.47342
71 15 -1.43065
72 15 -1.38696
73 15 -1.34239
74 15 -1.29708
75 15 -1.25116
76 15 -1.20463
77 15 -1.15762
78 15 -1.11019
79 15 -1.06242
80 15 -1.01438
81 15 -0.966116
82 15 -0.917731
83 15 -0.869232
84 15 -0.820663
85 15 -0.772081
86 15 -0.72347
87 15 -0.674882
88 15 -0.626308
89 15 -0.577803
90 15 -0.529339
91 15 -0.480931
92 15 -0.432606
93 15 -0.38434
94 15 -0.336141
95 15 -0.287989
96 15 -0.239881
97 15 -0.191819
98 15 -0.143817
99 15 -0.0958502
100 15 -0.0479227
101 15 0
1 16 0
2 16 -0.0513452
3 16 -0.1027
4 16 -0.154093
5 16 -0.205529
6 16 -0.257013
7 16 -0.308563
8 16 -0.360184
9 16 -0.411897
10 16 -0.463713
11 16 -0.515611
12 16 -0.567593
13 16 -0.619647
14 16 -0.671774
15 16 -0.72397
16 16 -0.776206
17 16 -0.828458
18 16 -0.880685
19 16 -0.93291
20 16 -0.985075
21 16 -1.03711
22 16 -1.08897
23 16 -1.1407
24 16 -1.19216
25 16 -1.24325
26 16 -1.29396
27 16 -1.34418
28 16 -1.39384
29 16 -1.44285
30 16 -1.49112
31 16 -1.53857
32 16 -1.58508
33 16 -1.63051
34 16 -1.67477
35 16 -1.7177
36 16 -1.75906
37 16 -1.79874
38 16 -1.83655
39 16 -1.87236
40 16 -1.90607
41 16 -1.93748
42 16 -1.96639
43 16 -1.99275
44 16 -2.01635
45 16 -2.03706
46 16 -2.05484
47 16 -2.06955
48 16 -2.08105
49 16 -2.08927
50 16 -2.09419
51 16 -2.09584
52 16 -2.09413
53 16 -2.08914
54 16 -2.08086
55 16 -2.06934
56 16 -2.05468
57 16 -2.03693
58 16 -2.01616
59 16 -1.99252
60 16 -1.96609
61 16 -1.93704
62 16 -1.90563
63 16 -1.87195
64 16 -1.83614
65 16 -1.7983
66 16 -1.75868
67 16 -1.71742
68 16 -1.67463
69 16 -1.63048
70 16 -1.58509
71 16 -1.5387
72 16 -1.49132
73 16 -1.44303
74 16 -1.39399
75 16 -1.34431
76 16 -1.29405
77 16 -1.24328
78 16 -1.1921
79 16 -1.14056
80 16 -1.08876
81 16 -1.03678
82 16 -0.984653
83 16 -0.932443
84 16 -0.880211
85 16 -0.827939
86 16 -0.775667
87 16 -0.723458
88 16 -0.671301
89 16 -0.61923
90 16 -0.567224
91 16 -0.5153
92 16 -0.463475
93 16 -0.411736
94 16 -0.360076
95 16 -0.308471
96 16 -0.256929
97 16 -0.205436
98 16 -0.154019
99 16 -0.102659
100 16 -0.0513287
101 16 0
1 17 0
2 17 -0.0547261
3 17 -0.109475
4 17 -0.164258
5 17 -0.219104
6 17 -0.274007
7 17 -0.328983
8 17 -0.384053
9 17 -0.43922
10 17 -0.494527
11 17 -0.549933
12 17 -0.60544
13 17 -0.661072
14 17 -0.716797
15 17 -0.772602
16 17 -0.828474
17 17 -0.884404
18 17 -0.940345
19 17 -0.996276
20 17 -1.05217
21 17 -1.10799
22 17 -1.16365
23 17 -1.21918
24 17 -1.27446
25 17 -1.32939
26 17 -1.38394
27 17 -1.438
28 17 -1.49151
29 17 -1.5444
30 17 -1.59653
31 17 -1.6478
32 17 -1.69809
33 17 -1.74724
34 17 -1.79517
35 17 -1.84167
36 17 -1.88651
37 17 -1.92958
38 17 -1.97066
39 17 -2.00963
40 17 -2.04632
41 17 -2.08052
42 17 -2.11204
43 17 -2.14076
44 17 -2.16653
45 17 -2.18918
46 17 -2.20861
47 17 -2.2247
48 17 -2.23729
49 17 -2.24628
50 17 -2.25165
51 17 -2.25344
52 17 -2.25159
53 17 -2.24612
54 17 -2.23707
55 17 -2.22451
56 17 -2.20848
57 17 -2.18908
58 17 -2.16639
59 17 -2.14058
60 17 -2.11177
61 17 -2.08016
62 17 -2.04593
63 17 -2.00923
64 17 -1.97027
65 17 -1.92917
66 17 -1.88613
67 17 -1.84137
68 17 -1.795
69 17 -1.74717
70 17 -1.69807
71 17 -1.64788
72 17 -1.59668
73 17 -1.54456
74 17 -1.49167
75 17 -1.43814
76 17 -1.38401
77 17 -1.32941
78 17 -1.27438
79 17 -1.21902
80 17 -1.1634
81 17 -1.10764
82 17 -1.05174
83 17 -0.995779
84 17 -0.939816
85 17 -0.883848
86 17 -0.827915
87 17 -0.772045
88 17 -0.716281
89 17 -0.660627
90 17 -0.605068
91 17 -0.549609
92 17 -0.494284
93 17 -0.439068
94 17 -0.383954
95 17 -0.328911
96 17 -0.273943
97 17 -0.219036
98 17 -0.164217
99 17 -0.109455
100 17 -0.05472
101 17 0
1 18 0
2 18 -0.0580978
3 18 -0.116214
4 18 -0.174384
5 18 -0.232621
6 18 -0.290923
7 18 -0.349335
8 18 -0.407846
9 18 -0.466483
10 18 -0.525257
11 18 -0.584161
12 18 -0.643235
13 18 -0.702436
14 18 -0.761754
15 18 -0.821184
16 18 -0.880739
17 18 -0.940378
18 18 -1.00004
19 18 -1.05973
20 18 -1.1194
21 18 -1.17905
22 18 -1.23859
23 18 -1.29798
24 18 -1.35716
25 18 -1.41599
26 18 -1.47448
27 18 -1.53249
28 18 -1.58998
29 18 -1.64685
30 18 -1.70294
31 18 -1.75816
32 18 -1.81236
33 18 -1.86542
34 18 -1.91714
35 18 -1.96737
36 18 -2.01588
37 18 -2.06253
38 18 -2.10706
39 18 -2.14935
40 18 -2.18918
41 18 -2.22636
42 18 -2.26065
43 18 -2.29187
44 18 -2.31992
45 18 -2.34461
46 18 -2.36583
47 18 -2.38338
48 18 -2.39713
49 18 -2.40696
50 18 -2.41288
51 18 -2.41483
52 18 -2.41279
53 18 -2.40683
54 18 -2.39696
55 18 -2.38324
56 18 -2.36576
57 18 -2.3446
58 18 -2.31987
59 18 -2.29176
60 18 -2.26041
61 18 -2.22602
62 18 -2.18883
63 18 -2.14899
64 18 -2.10669
65 18 -2.06216
66 18 -2.01554
67 18 -1.9671
68 18 -1.91699
69 18 -1.86534
70 18 -1.81238
71 18 -1.75824
72 18 -1.70308
73 18 -1.64698
74 18 -1.5901
75 18 -1.5326
76 18 -1.47453
77 18 -1.41598
78 18 -1.35704
79 18 -1.29778
80 18 -1.23831
81 18 -1.1787
82 18 -1.11898
83 18 -1.05922
84 18 -0.999498
85 18 -0.939802
86 18 -0.880158
87 18 -0.820606
88 18 -0.761219
89 18 -0.701971
90 18 -0.642851
91 18 -0.583865
92 18 -0.525041
93 18 -0.466345
94 18 -0.407765
95 18 -0.349285
96 18 -0.290905
97 18 -0.232601
98 18 -0.174385
99 18 -0.116223
100 18 -0.0580972
101 18 0
1 19 0
2 19 -0.061453
3 19 -0.122932
4 19 -0.184476
5 19 -0.246086
6 19 -0.307792
7 19 -0.369631
8 19 -0.431586
9 19 -0.493658
10 19 -0.555901
11 19 -0.618313
12 19 -0.680928
13 19 -0.743714
14 19 -0.806643
15 19 -0.869718
16 19 -0.932966
17 19 -0.996323
18 19 -1.05974
19 19 -1.12321
20 19 -1.18671
21 19 -1.25023
22 19 -1.31371
23 19 -1.37706
24 19 -1.44022
25 19 -1.5031
26 19 -1.56563
27 19 -1.6277
28 19 -1.68924
29 19 -1.75021
30 19 -1.81043
31 19 -1.86975
32 19 -1.92803
33 19 -1.98512
34 19 -2.0408
35 19 -2.09493
36 19 -2.14728
37 19 -2.19769
38 19 -2.24586
39 19 -2.29169
40 19 -2.33486
41 19 -2.37515
42 19 -2.41238
43 19 -2.44632
44 19 -2.47684
45 19 -2.5037
46 19 -2.52678
47 19 -2.54591
48 19 -2.5609
49 19 -2.57166
50 19 -2.57812
51 19 -2.58023
52 19 -2.57806
53 19 -2.57156
54 19 -2.56079
55 19 -2.54584
56 19 -2.52681
57 19 -2.50375
58 19 -2.47682
59 19 -2.44625
60 19 -2.41219
61 19 -2.37487
62 19 -2.33455
63 19 -2.29137
64 19 -2.24556
65 19 -2.19738
66 19 -2.147
67 19 -2.09465
68 19 -2.0406
69 19 -1.98498
70 19 -1.928
71 19 -1.86976
72 19 -1.81051
73 19 -1.75034
74 19 -1.68936
75 19 -1.62776
76 19 -1.56558
77 19 -1.50298
78 19 -1.44003
79 19 -1.37684
80 19 -1.31346
81 19 -1.24993
82 19 -1.18632
83 19 -1.1227
84 19 -1.05919
85 19 -0.99572
86 19 -0.932348
87 19 -0.86911
88 19 -0.80608
89 19 -0.743252
90 19 -0.680564
91 19 -0.61805
92 19 -0.555702
93 19 -0.493537
94 19 -0.431497
95 19 -0.369586
96 19 -0.307792
97 19 -0.246105
98 19 -0.184497
99 19 -0.122959
100 19 -0.061464
101 19 0
1 20 0
2 20 -0.0647999
3 20 -0.129636
4 20 -0.194529
5 20 -0.259529
6 20 -0.324632
7 20 -0.389862
8 20 -0.455233
9 20 -0.520752
10 20 -0.586461
11 20 -0.652377
12 20 -0.718511
13 20 -0.784846
14 20 -0.851405
15 20 -0.918149
16 20 -0.985104
17 20 -1.05219
18 20 -1.11939
19 20 -1.1867
20 20 -1.2541
21 20 -1.32157
22 20 -1.38903
23 20 -1.4564
24 20 -1.52365
25 20 -1.59065
26 20 -1.65732
27 20 -1.72354
28 20 -1.78931
29 20 -1.85451
30 20 -1.91895
31 20 -1.98254
32 20 -2.04506
33 20 -2.10638
34 20 -2.16626
35 20 -2.22449
36 20 -2.28086
37 20 -2.3352
38 20 -2.38724
39 20 -2.43675
40 20 -2.48347
41 20 -2.52713
42 20 -2.56753
43 20 -2.60442
44 20 -2.63755
45 20 -2.66674
46 20 -2.69183
47 20 -2.71266
48 20 -2.729
49 20 -2.74073
50 20 -2.74779
51 20 -2.75011
52 20 -2.74772
53 20 -2.74067
54 20 -2.72893
55 20 -2.71266
56 20 -2.69192
57 20 -2.66681
58 20 -2.63752
59 20 -2.60429
60 20 -2.56736
61 20 -2.52694
62 20 -2.48325
63 20 -2.43651
64 20 -2.38698
65 20 -2.33492
66 20 -2.28059
67 20 -2.22417
68 20 -2.16594
69 20 -2.10616
70 20 -2.04496
71 20 -1.98249
72 20 -1.91897
73 20 -1.85456
74 20 -1.78935
75 20 -1.72354
76 20 -1.6572
77 20 -1.59045
78 20 -1.52342
79 20 -1.45618
80 20 -1.38877
81 20 -1.32126
82 20 -1.25374
83 20 -1.18622
84 20 -1.11887
85 20 -1.05162
86 20 -0.984514
87 20 -0.917569
88 20 -0.850884
89 20 -0.784436
90 20 -0.718166
91 20 -0.652097
92 20 -0.586252
93 20 -0.520605
94 20 -0.455105
95 20 -0.38978
96 20 -0.3246
97 20 -0.259532
98 20 -0.194557
99 20 -0.129666
100 20 -0.0648206
101 20 0
1 21 0
2 21 -0.0681353
3 21 -0.136298
4 21 -0.204539
5 21 -0.272881
6 21 -0.34135
7 21 -0.409967
8 21 -0.478749
9 21 -0.547725
10 21 -0.616895
11 21 -0.686316
12 21 -0.755972
13 21 -0.825878
14 21 -0.896054
15 21 -0.966463
16 21 -1.03712
17 21 -1.10798
18 21 -1.179
19 21 -1.2502
20 21 -1.32157
21 21 -1.39301
22 21 -1.46448
23 21 -1.53598
24 21 -1.6074
25 21 -1.6786
26 21 -1.74952
27 21 -1.82007
28 21 -1.89017
29 21 -1.95969